
     Program BANDS v.6.5 starts on 24May2020 at 12:34:32 

     This program is part of the open-source Quantum ESPRESSO suite
     for quantum simulation of materials; please cite
         "P. Giannozzi et al., J. Phys.:Condens. Matter 21 395502 (2009);
         "P. Giannozzi et al., J. Phys.:Condens. Matter 29 465901 (2017);
          URL http://www.quantum-espresso.org", 
     in publications or presentations arising from this work. More details at
     http://www.quantum-espresso.org/quote

     Serial version

     Reading xml data from directory:

     ./tmp/SiC.save/

     IMPORTANT: XC functional enforced from input :
     Exchange-correlation= PBE
                           (   1   4   3   4   0   0   0)
     Any further DFT definition will be discarded
     Please, verify this is what you really want


     G-vector sticks info
     --------------------
     sticks:   dense  smooth     PW     G-vecs:    dense   smooth      PW
     Sum         745     379    121                13635     4909     893


     Check: negative core charge=   -0.000004
     Reading collected, re-writing distributed wavefunctions
     high-symmetry point:  0.0000 0.0000 0.0000   x coordinate   0.0000
     high-symmetry point: -1.0000 0.0000 0.0000   x coordinate   1.0000
     high-symmetry point: -1.0000 0.0000 0.5000   x coordinate   1.5000
     high-symmetry point: -0.5000 0.5000 0.5000   x coordinate   2.2071
     high-symmetry point:  0.0000 0.0000 0.0000   x coordinate   3.0731
     high-symmetry point: -1.0000 0.2500 0.2500   x coordinate   4.1338
     high-symmetry point: -1.0000 0.0000 0.0000   x coordinate   4.4873

     Plottable bands (eV) written to file bands_SiC.gnu
     Bands written to file bands_SiC

 **************************************************************************

                    xk=(   0.00000,   0.00000,   0.00000  )

     point group T_d (-43m) 
     there are  5 classes
     the character table:

       E     8C3   3C2   6S4   6s_d 
A_1    1.00  1.00  1.00  1.00  1.00
A_2    1.00  1.00  1.00 -1.00 -1.00
E      2.00 -1.00  2.00  0.00  0.00
T_1    3.00  0.00 -1.00  1.00 -1.00
T_2    3.00  0.00 -1.00 -1.00  1.00

     the symmetry operations in each class and the name of the first element:

     E        1
                                                                 
     8C3      5    7    8    6   12    9   10   11
                                                                 
     3C2      2    3    4
                                                                 
     6S4     15   16   20   19   23   24
                                                                 
     6s_d    13   14   17   18   21   22
                                                                 

     Band symmetry, T_d (-43m)  point group:

     e(  1 -  1) =     -5.99854  eV     1   --> A_1  G_1  P_1  
     e(  2 -  4) =      9.29816  eV     3   --> T_2  G_15 P_4  
     e(  5 -  5) =     15.36756  eV     1   --> A_1  G_1  P_1  
     e(  6 -  8) =     16.51178  eV     3   --> T_2  G_15 P_4  

 **************************************************************************

 **************************************************************************

                    xk=(  -0.01000,   0.00000,   0.00000  )

     point group C_2v (mm2) 
     there are  4 classes
     the character table:

       E     C2    s_v   s_v' 
A_1    1.00  1.00  1.00  1.00
A_2    1.00  1.00 -1.00 -1.00
B_1    1.00 -1.00  1.00 -1.00
B_2    1.00 -1.00 -1.00  1.00

     the symmetry operations in each class and the name of the first element:

     E        1
                                                                 
     C2       2
                                                                 
     s_v      3
                                                                 
     s_v'     4
                                                                 

     Band symmetry, C_2v (mm2)  point group:

     e(  1 -  1) =     -5.99790  eV     1   --> A_1  D_1  S_1  
     e(  2 -  2) =      9.29600  eV     1   --> A_1  D_1  S_1  
     e(  3 -  4) =      9.29684  eV     2   --> B_1  D_3  S_3  
     e(  3 -  4) =      9.29684  eV     2   --> B_2  D_4  S_4  
     e(  5 -  5) =     15.36958  eV     1   --> A_1  D_1  S_1  
     e(  6 -  6) =     16.50996  eV     1   --> A_1  D_1  S_1  
     e(  7 -  8) =     16.51369  eV     2   --> B_1  D_3  S_3  
     e(  7 -  8) =     16.51369  eV     2   --> B_2  D_4  S_4  

 **************************************************************************

 **************************************************************************

                    xk=(  -0.02000,   0.00000,   0.00000  )

     Band symmetry, C_2v (mm2)  point group:

     e(  1 -  1) =     -5.99596  eV     1   --> A_1  D_1  S_1  
     e(  2 -  2) =      9.28950  eV     1   --> A_1  D_1  S_1  
     e(  3 -  4) =      9.29287  eV     2   --> B_1  D_3  S_3  
     e(  3 -  4) =      9.29287  eV     2   --> B_2  D_4  S_4  
     e(  5 -  5) =     15.37561  eV     1   --> A_1  D_1  S_1  
     e(  6 -  6) =     16.50453  eV     1   --> A_1  D_1  S_1  
     e(  7 -  8) =     16.51940  eV     2   --> B_1  D_3  S_3  
     e(  7 -  8) =     16.51940  eV     2   --> B_2  D_4  S_4  

 **************************************************************************

 **************************************************************************

                    xk=(  -0.03000,   0.00000,   0.00000  )

     Band symmetry, C_2v (mm2)  point group:

     e(  1 -  1) =     -5.99273  eV     1   --> A_1  D_1  S_1  
     e(  2 -  2) =      9.27871  eV     1   --> A_1  D_1  S_1  
     e(  3 -  4) =      9.28628  eV     2   --> B_1  D_3  S_3  
     e(  3 -  4) =      9.28628  eV     2   --> B_2  D_4  S_4  
     e(  5 -  5) =     15.38559  eV     1   --> A_1  D_1  S_1  
     e(  6 -  6) =     16.49550  eV     1   --> A_1  D_1  S_1  
     e(  7 -  8) =     16.52891  eV     2   --> B_1  D_3  S_3  
     e(  7 -  8) =     16.52891  eV     2   --> B_2  D_4  S_4  

 **************************************************************************

 **************************************************************************

                    xk=(  -0.04000,   0.00000,   0.00000  )

     Band symmetry, C_2v (mm2)  point group:

     e(  1 -  1) =     -5.98820  eV     1   --> A_1  D_1  S_1  
     e(  2 -  2) =      9.26368  eV     1   --> A_1  D_1  S_1  
     e(  3 -  4) =      9.27708  eV     2   --> B_1  D_3  S_3  
     e(  3 -  4) =      9.27708  eV     2   --> B_2  D_4  S_4  
     e(  5 -  5) =     15.39944  eV     1   --> A_1  D_1  S_1  
     e(  6 -  6) =     16.48295  eV     1   --> A_1  D_1  S_1  
     e(  7 -  8) =     16.54217  eV     2   --> B_1  D_3  S_3  
     e(  7 -  8) =     16.54217  eV     2   --> B_2  D_4  S_4  

 **************************************************************************

 **************************************************************************

                    xk=(  -0.05000,   0.00000,   0.00000  )

     Band symmetry, C_2v (mm2)  point group:

     e(  1 -  1) =     -5.98239  eV     1   --> A_1  D_1  S_1  
     e(  2 -  2) =      9.24448  eV     1   --> A_1  D_1  S_1  
     e(  3 -  4) =      9.26532  eV     2   --> B_1  D_3  S_3  
     e(  3 -  4) =      9.26532  eV     2   --> B_2  D_4  S_4  
     e(  5 -  5) =     15.41700  eV     1   --> A_1  D_1  S_1  
     e(  6 -  6) =     16.46695  eV     1   --> A_1  D_1  S_1  
     e(  7 -  8) =     16.55917  eV     2   --> B_1  D_3  S_3  
     e(  7 -  8) =     16.55917  eV     2   --> B_2  D_4  S_4  

 **************************************************************************

 **************************************************************************

                    xk=(  -0.06000,   0.00000,   0.00000  )

     Band symmetry, C_2v (mm2)  point group:

     e(  1 -  1) =     -5.97529  eV     1   --> A_1  D_1  S_1  
     e(  2 -  2) =      9.22119  eV     1   --> A_1  D_1  S_1  
     e(  3 -  4) =      9.25103  eV     2   --> B_1  D_3  S_3  
     e(  3 -  4) =      9.25103  eV     2   --> B_2  D_4  S_4  
     e(  5 -  5) =     15.43810  eV     1   --> A_1  D_1  S_1  
     e(  6 -  6) =     16.44764  eV     1   --> A_1  D_1  S_1  
     e(  7 -  8) =     16.57983  eV     2   --> B_1  D_3  S_3  
     e(  7 -  8) =     16.57983  eV     2   --> B_2  D_4  S_4  

 **************************************************************************

 **************************************************************************

                    xk=(  -0.07000,   0.00000,   0.00000  )

     Band symmetry, C_2v (mm2)  point group:

     e(  1 -  1) =     -5.96689  eV     1   --> A_1  D_1  S_1  
     e(  2 -  2) =      9.19391  eV     1   --> A_1  D_1  S_1  
     e(  3 -  4) =      9.23429  eV     2   --> B_1  D_3  S_3  
     e(  3 -  4) =      9.23429  eV     2   --> B_2  D_4  S_4  
     e(  5 -  5) =     15.46252  eV     1   --> A_1  D_1  S_1  
     e(  6 -  6) =     16.42515  eV     1   --> A_1  D_1  S_1  
     e(  7 -  8) =     16.60412  eV     2   --> B_1  D_3  S_3  
     e(  7 -  8) =     16.60412  eV     2   --> B_2  D_4  S_4  

 **************************************************************************

 **************************************************************************

                    xk=(  -0.08000,   0.00000,   0.00000  )

     Band symmetry, C_2v (mm2)  point group:

     e(  1 -  1) =     -5.95721  eV     1   --> A_1  D_1  S_1  
     e(  2 -  2) =      9.16277  eV     1   --> A_1  D_1  S_1  
     e(  3 -  4) =      9.21514  eV     2   --> B_1  D_3  S_3  
     e(  3 -  4) =      9.21514  eV     2   --> B_2  D_4  S_4  
     e(  5 -  5) =     15.48995  eV     1   --> A_1  D_1  S_1  
     e(  6 -  6) =     16.39969  eV     1   --> A_1  D_1  S_1  
     e(  7 -  8) =     16.63196  eV     2   --> B_1  D_3  S_3  
     e(  7 -  8) =     16.63196  eV     2   --> B_2  D_4  S_4  

 **************************************************************************

 **************************************************************************

                    xk=(  -0.09000,   0.00000,   0.00000  )

     Band symmetry, C_2v (mm2)  point group:

     e(  1 -  1) =     -5.94621  eV     1   --> A_1  D_1  S_1  
     e(  2 -  2) =      9.12808  eV     1   --> A_1  D_1  S_1  
     e(  3 -  4) =      9.19367  eV     2   --> B_1  D_3  S_3  
     e(  3 -  4) =      9.19367  eV     2   --> B_2  D_4  S_4  
     e(  5 -  5) =     15.52008  eV     1   --> A_1  D_1  S_1  
     e(  6 -  6) =     16.37154  eV     1   --> A_1  D_1  S_1  
     e(  7 -  8) =     16.66329  eV     2   --> B_1  D_3  S_3  
     e(  7 -  8) =     16.66329  eV     2   --> B_2  D_4  S_4  

 **************************************************************************

 **************************************************************************

                    xk=(  -0.10000,   0.00000,   0.00000  )

     Band symmetry, C_2v (mm2)  point group:

     e(  1 -  1) =     -5.93395  eV     1   --> A_1  D_1  S_1  
     e(  2 -  2) =      9.08958  eV     1   --> A_1  D_1  S_1  
     e(  3 -  4) =      9.16993  eV     2   --> B_1  D_3  S_3  
     e(  3 -  4) =      9.16993  eV     2   --> B_2  D_4  S_4  
     e(  5 -  5) =     15.55239  eV     1   --> A_1  D_1  S_1  
     e(  6 -  6) =     16.34096  eV     1   --> A_1  D_1  S_1  
     e(  7 -  8) =     16.69799  eV     2   --> B_1  D_3  S_3  
     e(  7 -  8) =     16.69799  eV     2   --> B_2  D_4  S_4  

 **************************************************************************

 **************************************************************************

                    xk=(  -0.11000,   0.00000,   0.00000  )

     Band symmetry, C_2v (mm2)  point group:

     e(  1 -  1) =     -5.92040  eV     1   --> A_1  D_1  S_1  
     e(  2 -  2) =      9.04762  eV     1   --> A_1  D_1  S_1  
     e(  3 -  4) =      9.14401  eV     2   --> B_1  D_3  S_3  
     e(  3 -  4) =      9.14401  eV     2   --> B_2  D_4  S_4  
     e(  5 -  5) =     15.58635  eV     1   --> A_1  D_1  S_1  
     e(  6 -  6) =     16.30843  eV     1   --> A_1  D_1  S_1  
     e(  7 -  8) =     16.73601  eV     2   --> B_1  D_3  S_3  
     e(  7 -  8) =     16.73601  eV     2   --> B_2  D_4  S_4  

 **************************************************************************

 **************************************************************************

                    xk=(  -0.12000,   0.00000,   0.00000  )

     Band symmetry, C_2v (mm2)  point group:

     e(  1 -  1) =     -5.90555  eV     1   --> A_1  D_1  S_1  
     e(  2 -  2) =      9.00246  eV     1   --> A_1  D_1  S_1  
     e(  3 -  4) =      9.11612  eV     2   --> B_1  D_3  S_3  
     e(  3 -  4) =      9.11612  eV     2   --> B_2  D_4  S_4  
     e(  5 -  5) =     15.62119  eV     1   --> A_1  D_1  S_1  
     e(  6 -  6) =     16.27464  eV     1   --> A_1  D_1  S_1  
     e(  7 -  8) =     16.77732  eV     2   --> B_1  D_3  S_3  
     e(  7 -  8) =     16.77732  eV     2   --> B_2  D_4  S_4  

 **************************************************************************

 **************************************************************************

                    xk=(  -0.13000,   0.00000,   0.00000  )

     Band symmetry, C_2v (mm2)  point group:

     e(  1 -  1) =     -5.88943  eV     1   --> A_1  D_1  S_1  
     e(  2 -  2) =      8.95402  eV     1   --> A_1  D_1  S_1  
     e(  3 -  4) =      9.08612  eV     2   --> B_1  D_3  S_3  
     e(  3 -  4) =      9.08612  eV     2   --> B_2  D_4  S_4  
     e(  5 -  5) =     15.65575  eV     1   --> A_1  D_1  S_1  
     e(  6 -  6) =     16.24043  eV     1   --> A_1  D_1  S_1  
     e(  7 -  8) =     16.82167  eV     2   --> B_1  D_3  S_3  
     e(  7 -  8) =     16.82167  eV     2   --> B_2  D_4  S_4  

 **************************************************************************

 **************************************************************************

                    xk=(  -0.14000,   0.00000,   0.00000  )

     Band symmetry, C_2v (mm2)  point group:

     e(  1 -  1) =     -5.87203  eV     1   --> A_1  D_1  S_1  
     e(  2 -  2) =      8.90257  eV     1   --> A_1  D_1  S_1  
     e(  3 -  4) =      9.05422  eV     2   --> B_1  D_3  S_3  
     e(  3 -  4) =      9.05422  eV     2   --> B_2  D_4  S_4  
     e(  5 -  5) =     15.68848  eV     1   --> A_1  D_1  S_1  
     e(  6 -  6) =     16.20727  eV     1   --> A_1  D_1  S_1  
     e(  7 -  8) =     16.86903  eV     2   --> B_1  D_3  S_3  
     e(  7 -  8) =     16.86903  eV     2   --> B_2  D_4  S_4  

 **************************************************************************

 **************************************************************************

                    xk=(  -0.15000,   0.00000,   0.00000  )

     Band symmetry, C_2v (mm2)  point group:

     e(  1 -  1) =     -5.85336  eV     1   --> A_1  D_1  S_1  
     e(  2 -  2) =      8.84827  eV     1   --> A_1  D_1  S_1  
     e(  3 -  4) =      9.02052  eV     2   --> B_1  D_3  S_3  
     e(  3 -  4) =      9.02052  eV     2   --> B_2  D_4  S_4  
     e(  5 -  5) =     15.71699  eV     1   --> A_1  D_1  S_1  
     e(  6 -  6) =     16.17733  eV     1   --> A_1  D_1  S_1  
     e(  7 -  8) =     16.91929  eV     2   --> B_1  D_3  S_3  
     e(  7 -  8) =     16.91929  eV     2   --> B_2  D_4  S_4  

 **************************************************************************

 **************************************************************************

                    xk=(  -0.16000,   0.00000,   0.00000  )

     Band symmetry, C_2v (mm2)  point group:

     e(  1 -  1) =     -5.83340  eV     1   --> A_1  D_1  S_1  
     e(  2 -  2) =      8.79125  eV     1   --> A_1  D_1  S_1  
     e(  3 -  4) =      8.98511  eV     2   --> B_1  D_3  S_3  
     e(  3 -  4) =      8.98511  eV     2   --> B_2  D_4  S_4  
     e(  5 -  5) =     15.73790  eV     1   --> A_1  D_1  S_1  
     e(  6 -  6) =     16.15380  eV     1   --> A_1  D_1  S_1  
     e(  7 -  8) =     16.97236  eV     2   --> B_1  D_3  S_3  
     e(  7 -  8) =     16.97236  eV     2   --> B_2  D_4  S_4  

 **************************************************************************

 **************************************************************************

                    xk=(  -0.17000,   0.00000,   0.00000  )

     Band symmetry, C_2v (mm2)  point group:

     e(  1 -  1) =     -5.81211  eV     1   --> A_1  D_1  S_1  
     e(  2 -  2) =      8.73176  eV     1   --> A_1  D_1  S_1  
     e(  3 -  4) =      8.94829  eV     2   --> B_1  D_3  S_3  
     e(  3 -  4) =      8.94829  eV     2   --> B_2  D_4  S_4  
     e(  5 -  5) =     15.74706  eV     1   --> A_1  D_1  S_1  
     e(  6 -  6) =     16.14079  eV     1   --> A_1  D_1  S_1  
     e(  7 -  8) =     17.02829  eV     2   --> B_1  D_3  S_3  
     e(  7 -  8) =     17.02829  eV     2   --> B_2  D_4  S_4  

 **************************************************************************

 **************************************************************************

                    xk=(  -0.18000,   0.00000,   0.00000  )

     Band symmetry, C_2v (mm2)  point group:

     e(  1 -  1) =     -5.78960  eV     1   --> A_1  D_1  S_1  
     e(  2 -  2) =      8.66974  eV     1   --> A_1  D_1  S_1  
     e(  3 -  4) =      8.90976  eV     2   --> B_1  D_3  S_3  
     e(  3 -  4) =      8.90976  eV     2   --> B_2  D_4  S_4  
     e(  5 -  5) =     15.74102  eV     1   --> A_1  D_1  S_1  
     e(  6 -  6) =     16.14105  eV     1   --> A_1  D_1  S_1  
     e(  7 -  8) =     17.08664  eV     2   --> B_1  D_3  S_3  
     e(  7 -  8) =     17.08664  eV     2   --> B_2  D_4  S_4  

 **************************************************************************

 **************************************************************************

                    xk=(  -0.19000,   0.00000,   0.00000  )

     Band symmetry, C_2v (mm2)  point group:

     e(  1 -  1) =     -5.76582  eV     1   --> A_1  D_1  S_1  
     e(  2 -  2) =      8.60545  eV     1   --> A_1  D_1  S_1  
     e(  3 -  4) =      8.86983  eV     2   --> B_1  D_3  S_3  
     e(  3 -  4) =      8.86983  eV     2   --> B_2  D_4  S_4  
     e(  5 -  5) =     15.71924  eV     1   --> A_1  D_1  S_1  
     e(  6 -  6) =     16.15506  eV     1   --> A_1  D_1  S_1  
     e(  7 -  8) =     17.14746  eV     2   --> B_1  D_3  S_3  
     e(  7 -  8) =     17.14746  eV     2   --> B_2  D_4  S_4  

 **************************************************************************

 **************************************************************************

                    xk=(  -0.20000,   0.00000,   0.00000  )

     Band symmetry, C_2v (mm2)  point group:

     e(  1 -  1) =     -5.74077  eV     1   --> A_1  D_1  S_1  
     e(  2 -  2) =      8.53900  eV     1   --> A_1  D_1  S_1  
     e(  3 -  4) =      8.82859  eV     2   --> B_1  D_3  S_3  
     e(  3 -  4) =      8.82859  eV     2   --> B_2  D_4  S_4  
     e(  5 -  5) =     15.68402  eV     1   --> A_1  D_1  S_1  
     e(  6 -  6) =     16.18020  eV     1   --> A_1  D_1  S_1  
     e(  7 -  8) =     17.21065  eV     2   --> B_1  D_3  S_3  
     e(  7 -  8) =     17.21065  eV     2   --> B_2  D_4  S_4  

 **************************************************************************

 **************************************************************************

                    xk=(  -0.21000,   0.00000,   0.00000  )

     Band symmetry, C_2v (mm2)  point group:

     e(  1 -  1) =     -5.71446  eV     1   --> A_1  D_1  S_1  
     e(  2 -  2) =      8.47052  eV     1   --> A_1  D_1  S_1  
     e(  3 -  4) =      8.78613  eV     2   --> B_1  D_3  S_3  
     e(  3 -  4) =      8.78613  eV     2   --> B_2  D_4  S_4  
     e(  5 -  5) =     15.63864  eV     1   --> A_1  D_1  S_1  
     e(  6 -  6) =     16.21281  eV     1   --> A_1  D_1  S_1  
     e(  7 -  8) =     17.27609  eV     2   --> B_1  D_3  S_3  
     e(  7 -  8) =     17.27609  eV     2   --> B_2  D_4  S_4  

 **************************************************************************

 **************************************************************************

                    xk=(  -0.22000,   0.00000,   0.00000  )

     Band symmetry, C_2v (mm2)  point group:

     e(  1 -  1) =     -5.68688  eV     1   --> A_1  D_1  S_1  
     e(  2 -  2) =      8.40012  eV     1   --> A_1  D_1  S_1  
     e(  3 -  4) =      8.74257  eV     2   --> B_1  D_3  S_3  
     e(  3 -  4) =      8.74257  eV     2   --> B_2  D_4  S_4  
     e(  5 -  5) =     15.58587  eV     1   --> A_1  D_1  S_1  
     e(  6 -  6) =     16.24976  eV     1   --> A_1  D_1  S_1  
     e(  7 -  8) =     17.34369  eV     2   --> B_1  D_3  S_3  
     e(  7 -  8) =     17.34369  eV     2   --> B_2  D_4  S_4  

 **************************************************************************

 **************************************************************************

                    xk=(  -0.23000,   0.00000,   0.00000  )

     Band symmetry, C_2v (mm2)  point group:

     e(  1 -  1) =     -5.65804  eV     1   --> A_1  D_1  S_1  
     e(  2 -  2) =      8.32781  eV     1   --> A_1  D_1  S_1  
     e(  3 -  4) =      8.69784  eV     2   --> B_1  D_3  S_3  
     e(  3 -  4) =      8.69784  eV     2   --> B_2  D_4  S_4  
     e(  5 -  5) =     15.52764  eV     1   --> A_1  D_1  S_1  
     e(  6 -  6) =     16.28866  eV     1   --> A_1  D_1  S_1  
     e(  7 -  8) =     17.41329  eV     2   --> B_1  D_3  S_3  
     e(  7 -  8) =     17.41329  eV     2   --> B_2  D_4  S_4  

 **************************************************************************

 **************************************************************************

                    xk=(  -0.24000,   0.00000,   0.00000  )

     Band symmetry, C_2v (mm2)  point group:

     e(  1 -  1) =     -5.62794  eV     1   --> A_1  D_1  S_1  
     e(  2 -  2) =      8.25392  eV     1   --> A_1  D_1  S_1  
     e(  3 -  4) =      8.65232  eV     2   --> B_1  D_3  S_3  
     e(  3 -  4) =      8.65232  eV     2   --> B_2  D_4  S_4  
     e(  5 -  5) =     15.46521  eV     1   --> A_1  D_1  S_1  
     e(  6 -  6) =     16.32778  eV     1   --> A_1  D_1  S_1  
     e(  7 -  8) =     17.48488  eV     2   --> B_1  D_3  S_3  
     e(  7 -  8) =     17.48488  eV     2   --> B_2  D_4  S_4  

 **************************************************************************

 **************************************************************************

                    xk=(  -0.25000,   0.00000,   0.00000  )

     Band symmetry, C_2v (mm2)  point group:

     e(  1 -  1) =     -5.59658  eV     1   --> A_1  D_1  S_1  
     e(  2 -  2) =      8.17844  eV     1   --> A_1  D_1  S_1  
     e(  3 -  4) =      8.60597  eV     2   --> B_1  D_3  S_3  
     e(  3 -  4) =      8.60597  eV     2   --> B_2  D_4  S_4  
     e(  5 -  5) =     15.39944  eV     1   --> A_1  D_1  S_1  
     e(  6 -  6) =     16.36575  eV     1   --> A_1  D_1  S_1  
     e(  7 -  8) =     17.55831  eV     2   --> B_1  D_3  S_3  
     e(  7 -  8) =     17.55831  eV     2   --> B_2  D_4  S_4  

 **************************************************************************

 **************************************************************************

                    xk=(  -0.26000,   0.00000,   0.00000  )

     Band symmetry, C_2v (mm2)  point group:

     e(  1 -  1) =     -5.56397  eV     1   --> A_1  D_1  S_1  
     e(  2 -  2) =      8.10145  eV     1   --> A_1  D_1  S_1  
     e(  3 -  4) =      8.55886  eV     2   --> B_1  D_3  S_3  
     e(  3 -  4) =      8.55886  eV     2   --> B_2  D_4  S_4  
     e(  5 -  5) =     15.33089  eV     1   --> A_1  D_1  S_1  
     e(  6 -  6) =     16.40145  eV     1   --> A_1  D_1  S_1  
     e(  7 -  8) =     17.63348  eV     2   --> B_1  D_3  S_3  
     e(  7 -  8) =     17.63348  eV     2   --> B_2  D_4  S_4  

 **************************************************************************

 **************************************************************************

                    xk=(  -0.27000,   0.00000,   0.00000  )

     Band symmetry, C_2v (mm2)  point group:

     e(  1 -  1) =     -5.53012  eV     1   --> A_1  D_1  S_1  
     e(  2 -  2) =      8.02304  eV     1   --> A_1  D_1  S_1  
     e(  3 -  4) =      8.51108  eV     2   --> B_1  D_3  S_3  
     e(  3 -  4) =      8.51108  eV     2   --> B_2  D_4  S_4  
     e(  5 -  5) =     15.25997  eV     1   --> A_1  D_1  S_1  
     e(  6 -  6) =     16.43390  eV     1   --> A_1  D_1  S_1  
     e(  7 -  8) =     17.71031  eV     2   --> B_1  D_3  S_3  
     e(  7 -  8) =     17.71031  eV     2   --> B_2  D_4  S_4  

 **************************************************************************

 **************************************************************************

                    xk=(  -0.28000,   0.00000,   0.00000  )

     Band symmetry, C_2v (mm2)  point group:

     e(  1 -  1) =     -5.49502  eV     1   --> A_1  D_1  S_1  
     e(  2 -  2) =      7.94330  eV     1   --> A_1  D_1  S_1  
     e(  3 -  4) =      8.46272  eV     2   --> B_1  D_3  S_3  
     e(  3 -  4) =      8.46272  eV     2   --> B_2  D_4  S_4  
     e(  5 -  5) =     15.18698  eV     1   --> A_1  D_1  S_1  
     e(  6 -  6) =     16.46218  eV     1   --> A_1  D_1  S_1  
     e(  7 -  8) =     17.78869  eV     2   --> B_1  D_3  S_3  
     e(  7 -  8) =     17.78869  eV     2   --> B_2  D_4  S_4  

 **************************************************************************

 **************************************************************************

                    xk=(  -0.29000,   0.00000,   0.00000  )

     Band symmetry, C_2v (mm2)  point group:

     e(  1 -  1) =     -5.45868  eV     1   --> A_1  D_1  S_1  
     e(  2 -  2) =      7.86229  eV     1   --> A_1  D_1  S_1  
     e(  3 -  4) =      8.41384  eV     2   --> B_1  D_3  S_3  
     e(  3 -  4) =      8.41384  eV     2   --> B_2  D_4  S_4  
     e(  5 -  5) =     15.11215  eV     1   --> A_1  D_1  S_1  
     e(  6 -  6) =     16.48548  eV     1   --> A_1  D_1  S_1  
     e(  7 -  8) =     17.86854  eV     2   --> B_1  D_3  S_3  
     e(  7 -  8) =     17.86854  eV     2   --> B_2  D_4  S_4  

 **************************************************************************

 **************************************************************************

                    xk=(  -0.30000,   0.00000,   0.00000  )

     Band symmetry, C_2v (mm2)  point group:

     e(  1 -  1) =     -5.42110  eV     1   --> A_1  D_1  S_1  
     e(  2 -  2) =      7.78008  eV     1   --> A_1  D_1  S_1  
     e(  3 -  4) =      8.36453  eV     2   --> B_1  D_3  S_3  
     e(  3 -  4) =      8.36453  eV     2   --> B_2  D_4  S_4  
     e(  5 -  5) =     15.03567  eV     1   --> A_1  D_1  S_1  
     e(  6 -  6) =     16.50303  eV     1   --> A_1  D_1  S_1  
     e(  7 -  8) =     17.94977  eV     2   --> B_1  D_3  S_3  
     e(  7 -  8) =     17.94977  eV     2   --> B_2  D_4  S_4  

 **************************************************************************

 **************************************************************************

                    xk=(  -0.31000,   0.00000,   0.00000  )

     Band symmetry, C_2v (mm2)  point group:

     e(  1 -  1) =     -5.38230  eV     1   --> A_1  D_1  S_1  
     e(  2 -  2) =      7.69674  eV     1   --> A_1  D_1  S_1  
     e(  3 -  4) =      8.31486  eV     2   --> B_1  D_3  S_3  
     e(  3 -  4) =      8.31486  eV     2   --> B_2  D_4  S_4  
     e(  5 -  5) =     14.95769  eV     1   --> A_1  D_1  S_1  
     e(  6 -  6) =     16.51416  eV     1   --> A_1  D_1  S_1  
     e(  7 -  8) =     18.03229  eV     2   --> B_1  D_3  S_3  
     e(  7 -  8) =     18.03229  eV     2   --> B_2  D_4  S_4  

 **************************************************************************

 **************************************************************************

                    xk=(  -0.32000,   0.00000,   0.00000  )

     Band symmetry, C_2v (mm2)  point group:

     e(  1 -  1) =     -5.34223  eV     1   --> A_1  D_1  S_1  
     e(  2 -  2) =      7.61233  eV     1   --> A_1  D_1  S_1  
     e(  3 -  4) =      8.26501  eV     2   --> B_1  D_3  S_3  
     e(  3 -  4) =      8.26501  eV     2   --> B_2  D_4  S_4  
     e(  5 -  5) =     14.87833  eV     1   --> A_1  D_1  S_1  
     e(  6 -  6) =     16.51836  eV     1   --> A_1  D_1  S_1  
     e(  7 -  8) =     18.11616  eV     2   --> B_1  D_3  S_3  
     e(  7 -  8) =     18.11616  eV     2   --> B_2  D_4  S_4  

 **************************************************************************

 **************************************************************************

                    xk=(  -0.33000,   0.00000,   0.00000  )

     Band symmetry, C_2v (mm2)  point group:

     e(  1 -  1) =     -5.30097  eV     1   --> A_1  D_1  S_1  
     e(  2 -  2) =      7.52693  eV     1   --> A_1  D_1  S_1  
     e(  3 -  4) =      8.21482  eV     2   --> B_1  D_3  S_3  
     e(  3 -  4) =      8.21482  eV     2   --> B_2  D_4  S_4  
     e(  5 -  5) =     14.79769  eV     1   --> A_1  D_1  S_1  
     e(  6 -  6) =     16.51518  eV     1   --> A_1  D_1  S_1  
     e(  7 -  8) =     18.20104  eV     2   --> B_1  D_3  S_3  
     e(  7 -  8) =     18.20104  eV     2   --> B_2  D_4  S_4  

 **************************************************************************

 **************************************************************************

                    xk=(  -0.34000,   0.00000,   0.00000  )

     Band symmetry, C_2v (mm2)  point group:

     e(  1 -  1) =     -5.25850  eV     1   --> A_1  D_1  S_1  
     e(  2 -  2) =      7.44051  eV     1   --> A_1  D_1  S_1  
     e(  3 -  4) =      8.16446  eV     2   --> B_1  D_3  S_3  
     e(  3 -  4) =      8.16446  eV     2   --> B_2  D_4  S_4  
     e(  5 -  5) =     14.71589  eV     1   --> A_1  D_1  S_1  
     e(  6 -  6) =     16.50425  eV     1   --> A_1  D_1  S_1  
     e(  7 -  8) =     18.28698  eV     2   --> B_1  D_3  S_3  
     e(  7 -  8) =     18.28698  eV     2   --> B_2  D_4  S_4  

 **************************************************************************

 **************************************************************************

                    xk=(  -0.35000,   0.00000,   0.00000  )

     Band symmetry, C_2v (mm2)  point group:

     e(  1 -  1) =     -5.21481  eV     1   --> A_1  D_1  S_1  
     e(  2 -  2) =      7.35316  eV     1   --> A_1  D_1  S_1  
     e(  3 -  4) =      8.11400  eV     2   --> B_1  D_3  S_3  
     e(  3 -  4) =      8.11400  eV     2   --> B_2  D_4  S_4  
     e(  5 -  5) =     14.63301  eV     1   --> A_1  D_1  S_1  
     e(  6 -  6) =     16.48555  eV     1   --> A_1  D_1  S_1  
     e(  7 -  8) =     18.37390  eV     2   --> B_1  D_3  S_3  
     e(  7 -  8) =     18.37390  eV     2   --> B_2  D_4  S_4  

 **************************************************************************

 **************************************************************************

                    xk=(  -0.36000,   0.00000,   0.00000  )

     Band symmetry, C_2v (mm2)  point group:

     e(  1 -  1) =     -5.16991  eV     1   --> A_1  D_1  S_1  
     e(  2 -  2) =      7.26492  eV     1   --> A_1  D_1  S_1  
     e(  3 -  4) =      8.06349  eV     2   --> B_1  D_3  S_3  
     e(  3 -  4) =      8.06349  eV     2   --> B_2  D_4  S_4  
     e(  5 -  5) =     14.54913  eV     1   --> A_1  D_1  S_1  
     e(  6 -  6) =     16.45917  eV     1   --> A_1  D_1  S_1  
     e(  7 -  8) =     18.46173  eV     2   --> B_1  D_3  S_3  
     e(  7 -  8) =     18.46173  eV     2   --> B_2  D_4  S_4  

 **************************************************************************

 **************************************************************************

                    xk=(  -0.37000,   0.00000,   0.00000  )

     Band symmetry, C_2v (mm2)  point group:

     e(  1 -  1) =     -5.12378  eV     1   --> A_1  D_1  S_1  
     e(  2 -  2) =      7.17584  eV     1   --> A_1  D_1  S_1  
     e(  3 -  4) =      8.01307  eV     2   --> B_1  D_3  S_3  
     e(  3 -  4) =      8.01307  eV     2   --> B_2  D_4  S_4  
     e(  5 -  5) =     14.46439  eV     1   --> A_1  D_1  S_1  
     e(  6 -  6) =     16.42545  eV     1   --> A_1  D_1  S_1  
     e(  7 -  8) =     18.55052  eV     2   --> B_1  D_3  S_3  
     e(  7 -  8) =     18.55052  eV     2   --> B_2  D_4  S_4  

 **************************************************************************

 **************************************************************************

                    xk=(  -0.38000,   0.00000,   0.00000  )

     Band symmetry, C_2v (mm2)  point group:

     e(  1 -  1) =     -5.07649  eV     1   --> A_1  D_1  S_1  
     e(  2 -  2) =      7.08593  eV     1   --> A_1  D_1  S_1  
     e(  3 -  4) =      7.96264  eV     2   --> B_1  D_3  S_3  
     e(  3 -  4) =      7.96264  eV     2   --> B_2  D_4  S_4  
     e(  5 -  5) =     14.37876  eV     1   --> A_1  D_1  S_1  
     e(  6 -  6) =     16.38470  eV     1   --> A_1  D_1  S_1  
     e(  7 -  8) =     18.63998  eV     2   --> B_1  D_3  S_3  
     e(  7 -  8) =     18.63998  eV     2   --> B_2  D_4  S_4  

 **************************************************************************

 **************************************************************************

                    xk=(  -0.39000,   0.00000,   0.00000  )

     Band symmetry, C_2v (mm2)  point group:

     e(  1 -  1) =     -5.02802  eV     1   --> A_1  D_1  S_1  
     e(  2 -  2) =      6.99523  eV     1   --> A_1  D_1  S_1  
     e(  3 -  4) =      7.91233  eV     2   --> B_1  D_3  S_3  
     e(  3 -  4) =      7.91233  eV     2   --> B_2  D_4  S_4  
     e(  5 -  5) =     14.29235  eV     1   --> A_1  D_1  S_1  
     e(  6 -  6) =     16.33752  eV     1   --> A_1  D_1  S_1  
     e(  7 -  8) =     18.73016  eV     2   --> B_1  D_3  S_3  
     e(  7 -  8) =     18.73016  eV     2   --> B_2  D_4  S_4  

 **************************************************************************

 **************************************************************************

                    xk=(  -0.40000,   0.00000,   0.00000  )

     Band symmetry, C_2v (mm2)  point group:

     e(  1 -  1) =     -4.97836  eV     1   --> A_1  D_1  S_1  
     e(  2 -  2) =      6.90377  eV     1   --> A_1  D_1  S_1  
     e(  3 -  4) =      7.86218  eV     2   --> B_1  D_3  S_3  
     e(  3 -  4) =      7.86218  eV     2   --> B_2  D_4  S_4  
     e(  5 -  5) =     14.20525  eV     1   --> A_1  D_1  S_1  
     e(  6 -  6) =     16.28454  eV     1   --> A_1  D_1  S_1  
     e(  7 -  8) =     18.82099  eV     2   --> B_1  D_3  S_3  
     e(  7 -  8) =     18.82099  eV     2   --> B_2  D_4  S_4  

 **************************************************************************

 **************************************************************************

                    xk=(  -0.41000,   0.00000,   0.00000  )

     Band symmetry, C_2v (mm2)  point group:

     e(  1 -  1) =     -4.92752  eV     1   --> A_1  D_1  S_1  
     e(  2 -  2) =      6.81157  eV     1   --> A_1  D_1  S_1  
     e(  3 -  4) =      7.81224  eV     2   --> B_1  D_3  S_3  
     e(  3 -  4) =      7.81224  eV     2   --> B_2  D_4  S_4  
     e(  5 -  5) =     14.11753  eV     1   --> A_1  D_1  S_1  
     e(  6 -  6) =     16.22646  eV     1   --> A_1  D_1  S_1  
     e(  7 -  8) =     18.91242  eV     2   --> B_1  D_3  S_3  
     e(  7 -  8) =     18.91242  eV     2   --> B_2  D_4  S_4  

 **************************************************************************

 **************************************************************************

                    xk=(  -0.42000,   0.00000,   0.00000  )

     Band symmetry, C_2v (mm2)  point group:

     e(  1 -  1) =     -4.87553  eV     1   --> A_1  D_1  S_1  
     e(  2 -  2) =      6.71851  eV     1   --> A_1  D_1  S_1  
     e(  3 -  4) =      7.76248  eV     2   --> B_1  D_3  S_3  
     e(  3 -  4) =      7.76248  eV     2   --> B_2  D_4  S_4  
     e(  5 -  5) =     14.02924  eV     1   --> A_1  D_1  S_1  
     e(  6 -  6) =     16.16372  eV     1   --> A_1  D_1  S_1  
     e(  7 -  8) =     19.00424  eV     2   --> B_1  D_3  S_3  
     e(  7 -  8) =     19.00424  eV     2   --> B_2  D_4  S_4  

 **************************************************************************

 **************************************************************************

                    xk=(  -0.43000,   0.00000,   0.00000  )

     Band symmetry, C_2v (mm2)  point group:

     e(  1 -  1) =     -4.82237  eV     1   --> A_1  D_1  S_1  
     e(  2 -  2) =      6.62490  eV     1   --> A_1  D_1  S_1  
     e(  3 -  4) =      7.71309  eV     2   --> B_1  D_3  S_3  
     e(  3 -  4) =      7.71309  eV     2   --> B_2  D_4  S_4  
     e(  5 -  5) =     13.94050  eV     1   --> A_1  D_1  S_1  
     e(  6 -  6) =     16.09753  eV     1   --> A_1  D_1  S_1  
     e(  7 -  8) =     19.09669  eV     2   --> B_1  D_3  S_3  
     e(  7 -  8) =     19.09669  eV     2   --> B_2  D_4  S_4  

 **************************************************************************

 **************************************************************************

                    xk=(  -0.44000,   0.00000,   0.00000  )

     Band symmetry, C_2v (mm2)  point group:

     e(  1 -  1) =     -4.76806  eV     1   --> A_1  D_1  S_1  
     e(  2 -  2) =      6.53063  eV     1   --> A_1  D_1  S_1  
     e(  3 -  4) =      7.66404  eV     2   --> B_1  D_3  S_3  
     e(  3 -  4) =      7.66404  eV     2   --> B_2  D_4  S_4  
     e(  5 -  5) =     13.85137  eV     1   --> A_1  D_1  S_1  
     e(  6 -  6) =     16.02831  eV     1   --> A_1  D_1  S_1  
     e(  7 -  8) =     19.18956  eV     2   --> B_1  D_3  S_3  
     e(  7 -  8) =     19.18956  eV     2   --> B_2  D_4  S_4  

 **************************************************************************

 **************************************************************************

                    xk=(  -0.45000,   0.00000,   0.00000  )

     Band symmetry, C_2v (mm2)  point group:

     e(  1 -  1) =     -4.71261  eV     1   --> A_1  D_1  S_1  
     e(  2 -  2) =      6.43570  eV     1   --> A_1  D_1  S_1  
     e(  3 -  4) =      7.61536  eV     2   --> B_1  D_3  S_3  
     e(  3 -  4) =      7.61536  eV     2   --> B_2  D_4  S_4  
     e(  5 -  5) =     13.76193  eV     1   --> A_1  D_1  S_1  
     e(  6 -  6) =     15.95669  eV     1   --> A_1  D_1  S_1  
     e(  7 -  8) =     19.28280  eV     2   --> B_1  D_3  S_3  
     e(  7 -  8) =     19.28280  eV     2   --> B_2  D_4  S_4  

 **************************************************************************

 **************************************************************************

                    xk=(  -0.46000,   0.00000,   0.00000  )

     Band symmetry, C_2v (mm2)  point group:

     e(  1 -  1) =     -4.65603  eV     1   --> A_1  D_1  S_1  
     e(  2 -  2) =      6.34013  eV     1   --> A_1  D_1  S_1  
     e(  3 -  4) =      7.56710  eV     2   --> B_1  D_3  S_3  
     e(  3 -  4) =      7.56710  eV     2   --> B_2  D_4  S_4  
     e(  5 -  5) =     13.67227  eV     1   --> A_1  D_1  S_1  
     e(  6 -  6) =     15.88324  eV     1   --> A_1  D_1  S_1  
     e(  7 -  8) =     19.37637  eV     2   --> B_1  D_3  S_3  
     e(  7 -  8) =     19.37637  eV     2   --> B_2  D_4  S_4  

 **************************************************************************

 **************************************************************************

                    xk=(  -0.47000,   0.00000,   0.00000  )

     Band symmetry, C_2v (mm2)  point group:

     e(  1 -  1) =     -4.59832  eV     1   --> A_1  D_1  S_1  
     e(  2 -  2) =      6.24395  eV     1   --> A_1  D_1  S_1  
     e(  3 -  4) =      7.51928  eV     2   --> B_1  D_3  S_3  
     e(  3 -  4) =      7.51928  eV     2   --> B_2  D_4  S_4  
     e(  5 -  5) =     13.58247  eV     1   --> A_1  D_1  S_1  
     e(  6 -  6) =     15.80847  eV     1   --> A_1  D_1  S_1  
     e(  7 -  8) =     19.47021  eV     2   --> B_1  D_3  S_3  
     e(  7 -  8) =     19.47021  eV     2   --> B_2  D_4  S_4  

 **************************************************************************

 **************************************************************************

                    xk=(  -0.48000,   0.00000,   0.00000  )

     Band symmetry, C_2v (mm2)  point group:

     e(  1 -  1) =     -4.53950  eV     1   --> A_1  D_1  S_1  
     e(  2 -  2) =      6.14716  eV     1   --> A_1  D_1  S_1  
     e(  3 -  4) =      7.47194  eV     2   --> B_1  D_3  S_3  
     e(  3 -  4) =      7.47194  eV     2   --> B_2  D_4  S_4  
     e(  5 -  5) =     13.49262  eV     1   --> A_1  D_1  S_1  
     e(  6 -  6) =     15.73285  eV     1   --> A_1  D_1  S_1  
     e(  7 -  8) =     19.56428  eV     2   --> B_1  D_3  S_3  
     e(  7 -  8) =     19.56428  eV     2   --> B_2  D_4  S_4  

 **************************************************************************

 **************************************************************************

                    xk=(  -0.49000,   0.00000,   0.00000  )

     Band symmetry, C_2v (mm2)  point group:

     e(  1 -  1) =     -4.47957  eV     1   --> A_1  D_1  S_1  
     e(  2 -  2) =      6.04978  eV     1   --> A_1  D_1  S_1  
     e(  3 -  4) =      7.42511  eV     2   --> B_1  D_3  S_3  
     e(  3 -  4) =      7.42511  eV     2   --> B_2  D_4  S_4  
     e(  5 -  5) =     13.40282  eV     1   --> A_1  D_1  S_1  
     e(  6 -  6) =     15.65679  eV     1   --> A_1  D_1  S_1  
     e(  7 -  8) =     19.65852  eV     2   --> B_1  D_3  S_3  
     e(  7 -  8) =     19.65852  eV     2   --> B_2  D_4  S_4  

 **************************************************************************

 **************************************************************************

                    xk=(  -0.50000,   0.00000,   0.00000  )

     Band symmetry, C_2v (mm2)  point group:

     e(  1 -  1) =     -4.41855  eV     1   --> A_1  D_1  S_1  
     e(  2 -  2) =      5.95183  eV     1   --> A_1  D_1  S_1  
     e(  3 -  4) =      7.37882  eV     2   --> B_1  D_3  S_3  
     e(  3 -  4) =      7.37882  eV     2   --> B_2  D_4  S_4  
     e(  5 -  5) =     13.31316  eV     1   --> A_1  D_1  S_1  
     e(  6 -  6) =     15.58064  eV     1   --> A_1  D_1  S_1  
     e(  7 -  8) =     19.75289  eV     2   --> B_1  D_3  S_3  
     e(  7 -  8) =     19.75289  eV     2   --> B_2  D_4  S_4  

 **************************************************************************

 **************************************************************************

                    xk=(  -0.51000,   0.00000,   0.00000  )

     Band symmetry, C_2v (mm2)  point group:

     e(  1 -  1) =     -4.35646  eV     1   --> A_1  D_1  S_1  
     e(  2 -  2) =      5.85331  eV     1   --> A_1  D_1  S_1  
     e(  3 -  4) =      7.33309  eV     2   --> B_1  D_3  S_3  
     e(  3 -  4) =      7.33309  eV     2   --> B_2  D_4  S_4  
     e(  5 -  5) =     13.22373  eV     1   --> A_1  D_1  S_1  
     e(  6 -  6) =     15.50471  eV     1   --> A_1  D_1  S_1  
     e(  7 -  8) =     19.84734  eV     2   --> B_1  D_3  S_3  
     e(  7 -  8) =     19.84734  eV     2   --> B_2  D_4  S_4  

 **************************************************************************

 **************************************************************************

                    xk=(  -0.52000,   0.00000,   0.00000  )

     Band symmetry, C_2v (mm2)  point group:

     e(  1 -  1) =     -4.29329  eV     1   --> A_1  D_1  S_1  
     e(  2 -  2) =      5.75426  eV     1   --> A_1  D_1  S_1  
     e(  3 -  4) =      7.28796  eV     2   --> B_1  D_3  S_3  
     e(  3 -  4) =      7.28796  eV     2   --> B_2  D_4  S_4  
     e(  5 -  5) =     13.13465  eV     1   --> A_1  D_1  S_1  
     e(  6 -  6) =     15.42925  eV     1   --> A_1  D_1  S_1  
     e(  7 -  8) =     19.94183  eV     2   --> B_1  D_3  S_3  
     e(  7 -  8) =     19.94183  eV     2   --> B_2  D_4  S_4  

 **************************************************************************

 **************************************************************************

                    xk=(  -0.53000,   0.00000,   0.00000  )

     Band symmetry, C_2v (mm2)  point group:

     e(  1 -  1) =     -4.22908  eV     1   --> A_1  D_1  S_1  
     e(  2 -  2) =      5.65467  eV     1   --> A_1  D_1  S_1  
     e(  3 -  4) =      7.24346  eV     2   --> B_1  D_3  S_3  
     e(  3 -  4) =      7.24346  eV     2   --> B_2  D_4  S_4  
     e(  5 -  5) =     13.04599  eV     1   --> A_1  D_1  S_1  
     e(  6 -  6) =     15.35450  eV     1   --> A_1  D_1  S_1  
     e(  7 -  8) =     20.03630  eV     2   --> B_1  D_3  S_3  
     e(  7 -  8) =     20.03630  eV     2   --> B_2  D_4  S_4  

 **************************************************************************

 **************************************************************************

                    xk=(  -0.54000,   0.00000,   0.00000  )

     Band symmetry, C_2v (mm2)  point group:

     e(  1 -  1) =     -4.16382  eV     1   --> A_1  D_1  S_1  
     e(  2 -  2) =      5.55458  eV     1   --> A_1  D_1  S_1  
     e(  3 -  4) =      7.19960  eV     2   --> B_1  D_3  S_3  
     e(  3 -  4) =      7.19960  eV     2   --> B_2  D_4  S_4  
     e(  5 -  5) =     12.95788  eV     1   --> A_1  D_1  S_1  
     e(  6 -  6) =     15.28065  eV     1   --> A_1  D_1  S_1  
     e(  7 -  8) =     20.13072  eV     2   --> B_1  D_3  S_3  
     e(  7 -  8) =     20.13072  eV     2   --> B_2  D_4  S_4  

 **************************************************************************

 **************************************************************************

                    xk=(  -0.55000,   0.00000,   0.00000  )

     Band symmetry, C_2v (mm2)  point group:

     e(  1 -  1) =     -4.09754  eV     1   --> A_1  D_1  S_1  
     e(  2 -  2) =      5.45399  eV     1   --> A_1  D_1  S_1  
     e(  3 -  4) =      7.15641  eV     2   --> B_1  D_3  S_3  
     e(  3 -  4) =      7.15641  eV     2   --> B_2  D_4  S_4  
     e(  5 -  5) =     12.87039  eV     1   --> A_1  D_1  S_1  
     e(  6 -  6) =     15.20785  eV     1   --> A_1  D_1  S_1  
     e(  7 -  8) =     20.22503  eV     2   --> B_1  D_3  S_3  
     e(  7 -  8) =     20.22503  eV     2   --> B_2  D_4  S_4  

 **************************************************************************

 **************************************************************************

                    xk=(  -0.56000,   0.00000,   0.00000  )

     Band symmetry, C_2v (mm2)  point group:

     e(  1 -  1) =     -4.03025  eV     1   --> A_1  D_1  S_1  
     e(  2 -  2) =      5.35292  eV     1   --> A_1  D_1  S_1  
     e(  3 -  4) =      7.11391  eV     2   --> B_1  D_3  S_3  
     e(  3 -  4) =      7.11391  eV     2   --> B_2  D_4  S_4  
     e(  5 -  5) =     12.78365  eV     1   --> A_1  D_1  S_1  
     e(  6 -  6) =     15.13624  eV     1   --> A_1  D_1  S_1  
     e(  7 -  8) =     20.31918  eV     2   --> B_1  D_3  S_3  
     e(  7 -  8) =     20.31918  eV     2   --> B_2  D_4  S_4  

 **************************************************************************

 **************************************************************************

                    xk=(  -0.57000,   0.00000,   0.00000  )

     Band symmetry, C_2v (mm2)  point group:

     e(  1 -  1) =     -3.96196  eV     1   --> A_1  D_1  S_1  
     e(  2 -  2) =      5.25140  eV     1   --> A_1  D_1  S_1  
     e(  3 -  4) =      7.07212  eV     2   --> B_1  D_3  S_3  
     e(  3 -  4) =      7.07212  eV     2   --> B_2  D_4  S_4  
     e(  5 -  5) =     12.69773  eV     1   --> A_1  D_1  S_1  
     e(  6 -  6) =     15.06593  eV     1   --> A_1  D_1  S_1  
     e(  7 -  8) =     20.41313  eV     2   --> B_1  D_3  S_3  
     e(  7 -  8) =     20.41313  eV     2   --> B_2  D_4  S_4  

 **************************************************************************

 **************************************************************************

                    xk=(  -0.58000,   0.00000,   0.00000  )

     Band symmetry, C_2v (mm2)  point group:

     e(  1 -  1) =     -3.89270  eV     1   --> A_1  D_1  S_1  
     e(  2 -  2) =      5.14945  eV     1   --> A_1  D_1  S_1  
     e(  3 -  4) =      7.03107  eV     2   --> B_1  D_3  S_3  
     e(  3 -  4) =      7.03107  eV     2   --> B_2  D_4  S_4  
     e(  5 -  5) =     12.61275  eV     1   --> A_1  D_1  S_1  
     e(  6 -  6) =     14.99701  eV     1   --> A_1  D_1  S_1  
     e(  7 -  8) =     20.50683  eV     2   --> B_1  D_3  S_3  
     e(  7 -  8) =     20.50683  eV     2   --> B_2  D_4  S_4  

 **************************************************************************

 **************************************************************************

                    xk=(  -0.59000,   0.00000,   0.00000  )

     Band symmetry, C_2v (mm2)  point group:

     e(  1 -  1) =     -3.82251  eV     1   --> A_1  D_1  S_1  
     e(  2 -  2) =      5.04698  eV     1   --> A_1  D_1  S_1  
     e(  3 -  4) =      6.99071  eV     2   --> B_1  D_3  S_3  
     e(  3 -  4) =      6.99071  eV     2   --> B_2  D_4  S_4  
     e(  5 -  5) =     12.52873  eV     1   --> A_1  D_1  S_1  
     e(  6 -  6) =     14.92947  eV     1   --> A_1  D_1  S_1  
     e(  7 -  8) =     20.60007  eV     2   --> B_1  D_3  S_3  
     e(  7 -  8) =     20.60007  eV     2   --> B_2  D_4  S_4  

 **************************************************************************

 **************************************************************************

                    xk=(  -0.60000,   0.00000,   0.00000  )

     Band symmetry, C_2v (mm2)  point group:

     e(  1 -  1) =     -3.75135  eV     1   --> A_1  D_1  S_1  
     e(  2 -  2) =      4.94423  eV     1   --> A_1  D_1  S_1  
     e(  3 -  4) =      6.95118  eV     2   --> B_1  D_3  S_3  
     e(  3 -  4) =      6.95118  eV     2   --> B_2  D_4  S_4  
     e(  5 -  5) =     12.44588  eV     1   --> A_1  D_1  S_1  
     e(  6 -  6) =     14.86354  eV     1   --> A_1  D_1  S_1  
     e(  7 -  8) =     20.69312  eV     2   --> B_1  D_3  S_3  
     e(  7 -  8) =     20.69312  eV     2   --> B_2  D_4  S_4  

 **************************************************************************

 **************************************************************************

                    xk=(  -0.61000,   0.00000,   0.00000  )

     Band symmetry, C_2v (mm2)  point group:

     e(  1 -  1) =     -3.67931  eV     1   --> A_1  D_1  S_1  
     e(  2 -  2) =      4.84089  eV     1   --> A_1  D_1  S_1  
     e(  3 -  4) =      6.91220  eV     2   --> B_1  D_3  S_3  
     e(  3 -  4) =      6.91220  eV     2   --> B_2  D_4  S_4  
     e(  5 -  5) =     12.36411  eV     1   --> A_1  D_1  S_1  
     e(  6 -  6) =     14.79915  eV     1   --> A_1  D_1  S_1  
     e(  7 -  8) =     20.78530  eV     2   --> B_1  D_3  S_3  
     e(  7 -  8) =     20.78530  eV     2   --> B_2  D_4  S_4  

 **************************************************************************

 **************************************************************************

                    xk=(  -0.62000,   0.00000,   0.00000  )

     Band symmetry, C_2v (mm2)  point group:

     e(  1 -  1) =     -3.60636  eV     1   --> A_1  D_1  S_1  
     e(  2 -  2) =      4.73744  eV     1   --> A_1  D_1  S_1  
     e(  3 -  4) =      6.87426  eV     2   --> B_1  D_3  S_3  
     e(  3 -  4) =      6.87426  eV     2   --> B_2  D_4  S_4  
     e(  5 -  5) =     12.28375  eV     1   --> A_1  D_1  S_1  
     e(  6 -  6) =     14.73641  eV     1   --> A_1  D_1  S_1  
     e(  7 -  8) =     20.87747  eV     2   --> B_1  D_3  S_3  
     e(  7 -  8) =     20.87747  eV     2   --> B_2  D_4  S_4  

 **************************************************************************

 **************************************************************************

                    xk=(  -0.63000,   0.00000,   0.00000  )

     Band symmetry, C_2v (mm2)  point group:

     e(  1 -  1) =     -3.53254  eV     1   --> A_1  D_1  S_1  
     e(  2 -  2) =      4.63369  eV     1   --> A_1  D_1  S_1  
     e(  3 -  4) =      6.83714  eV     2   --> B_1  D_3  S_3  
     e(  3 -  4) =      6.83714  eV     2   --> B_2  D_4  S_4  
     e(  5 -  5) =     12.20477  eV     1   --> A_1  D_1  S_1  
     e(  6 -  6) =     14.67532  eV     1   --> A_1  D_1  S_1  
     e(  7 -  8) =     20.96912  eV     2   --> B_1  D_3  S_3  
     e(  7 -  8) =     20.96912  eV     2   --> B_2  D_4  S_4  

 **************************************************************************

 **************************************************************************

                    xk=(  -0.64000,   0.00000,   0.00000  )

     Band symmetry, C_2v (mm2)  point group:

     e(  1 -  1) =     -3.45788  eV     1   --> A_1  D_1  S_1  
     e(  2 -  2) =      4.52968  eV     1   --> A_1  D_1  S_1  
     e(  3 -  4) =      6.80086  eV     2   --> B_1  D_3  S_3  
     e(  3 -  4) =      6.80086  eV     2   --> B_2  D_4  S_4  
     e(  5 -  5) =     12.12723  eV     1   --> A_1  D_1  S_1  
     e(  6 -  6) =     14.61589  eV     1   --> A_1  D_1  S_1  
     e(  7 -  8) =     21.06019  eV     2   --> B_1  D_3  S_3  
     e(  7 -  8) =     21.06019  eV     2   --> B_2  D_4  S_4  

 **************************************************************************

 **************************************************************************

                    xk=(  -0.65000,   0.00000,   0.00000  )

     Band symmetry, C_2v (mm2)  point group:

     e(  1 -  1) =     -3.38241  eV     1   --> A_1  D_1  S_1  
     e(  2 -  2) =      4.42544  eV     1   --> A_1  D_1  S_1  
     e(  3 -  4) =      6.76543  eV     2   --> B_1  D_3  S_3  
     e(  3 -  4) =      6.76543  eV     2   --> B_2  D_4  S_4  
     e(  5 -  5) =     12.05122  eV     1   --> A_1  D_1  S_1  
     e(  6 -  6) =     14.55813  eV     1   --> A_1  D_1  S_1  
     e(  7 -  8) =     21.15062  eV     2   --> B_1  D_3  S_3  
     e(  7 -  8) =     21.15062  eV     2   --> B_2  D_4  S_4  

 **************************************************************************

 **************************************************************************

                    xk=(  -0.66000,   0.00000,   0.00000  )

     Band symmetry, C_2v (mm2)  point group:

     e(  1 -  1) =     -3.30616  eV     1   --> A_1  D_1  S_1  
     e(  2 -  2) =      4.32100  eV     1   --> A_1  D_1  S_1  
     e(  3 -  4) =      6.73087  eV     2   --> B_1  D_3  S_3  
     e(  3 -  4) =      6.73087  eV     2   --> B_2  D_4  S_4  
     e(  5 -  5) =     11.97681  eV     1   --> A_1  D_1  S_1  
     e(  6 -  6) =     14.50207  eV     1   --> A_1  D_1  S_1  
     e(  7 -  8) =     21.24035  eV     2   --> B_1  D_3  S_3  
     e(  7 -  8) =     21.24035  eV     2   --> B_2  D_4  S_4  

 **************************************************************************

 **************************************************************************

                    xk=(  -0.67000,   0.00000,   0.00000  )

     Band symmetry, C_2v (mm2)  point group:

     e(  1 -  1) =     -3.22917  eV     1   --> A_1  D_1  S_1  
     e(  2 -  2) =      4.21643  eV     1   --> A_1  D_1  S_1  
     e(  3 -  4) =      6.69718  eV     2   --> B_1  D_3  S_3  
     e(  3 -  4) =      6.69718  eV     2   --> B_2  D_4  S_4  
     e(  5 -  5) =     11.90406  eV     1   --> A_1  D_1  S_1  
     e(  6 -  6) =     14.44770  eV     1   --> A_1  D_1  S_1  
     e(  7 -  8) =     21.32930  eV     2   --> B_1  D_3  S_3  
     e(  7 -  8) =     21.32930  eV     2   --> B_2  D_4  S_4  

 **************************************************************************

 **************************************************************************

                    xk=(  -0.68000,   0.00000,   0.00000  )

     Band symmetry, C_2v (mm2)  point group:

     e(  1 -  1) =     -3.15147  eV     1   --> A_1  D_1  S_1  
     e(  2 -  2) =      4.11175  eV     1   --> A_1  D_1  S_1  
     e(  3 -  4) =      6.66438  eV     2   --> B_1  D_3  S_3  
     e(  3 -  4) =      6.66438  eV     2   --> B_2  D_4  S_4  
     e(  5 -  5) =     11.83303  eV     1   --> A_1  D_1  S_1  
     e(  6 -  6) =     14.39503  eV     1   --> A_1  D_1  S_1  
     e(  7 -  8) =     21.41741  eV     2   --> B_1  D_3  S_3  
     e(  7 -  8) =     21.41741  eV     2   --> B_2  D_4  S_4  

 **************************************************************************

 **************************************************************************

                    xk=(  -0.69000,   0.00000,   0.00000  )

     Band symmetry, C_2v (mm2)  point group:

     e(  1 -  1) =     -3.07310  eV     1   --> A_1  D_1  S_1  
     e(  2 -  2) =      4.00703  eV     1   --> A_1  D_1  S_1  
     e(  3 -  4) =      6.63249  eV     2   --> B_1  D_3  S_3  
     e(  3 -  4) =      6.63249  eV     2   --> B_2  D_4  S_4  
     e(  5 -  5) =     11.76379  eV     1   --> A_1  D_1  S_1  
     e(  6 -  6) =     14.34406  eV     1   --> A_1  D_1  S_1  
     e(  7 -  8) =     21.50461  eV     2   --> B_1  D_3  S_3  
     e(  7 -  8) =     21.50461  eV     2   --> B_2  D_4  S_4  

 **************************************************************************

 **************************************************************************

                    xk=(  -0.70000,   0.00000,   0.00000  )

     Band symmetry, C_2v (mm2)  point group:

     e(  1 -  1) =     -2.99411  eV     1   --> A_1  D_1  S_1  
     e(  2 -  2) =      3.90225  eV     1   --> A_1  D_1  S_1  
     e(  3 -  4) =      6.60146  eV     2   --> B_1  D_3  S_3  
     e(  3 -  4) =      6.60146  eV     2   --> B_2  D_4  S_4  
     e(  5 -  5) =     11.69638  eV     1   --> A_1  D_1  S_1  
     e(  6 -  6) =     14.29473  eV     1   --> A_1  D_1  S_1  
     e(  7 -  8) =     21.59063  eV     2   --> B_1  D_3  S_3  
     e(  7 -  8) =     21.59063  eV     2   --> B_2  D_4  S_4  

 **************************************************************************

 **************************************************************************

                    xk=(  -0.71000,   0.00000,   0.00000  )

     Band symmetry, C_2v (mm2)  point group:

     e(  1 -  1) =     -2.91449  eV     1   --> A_1  D_1  S_1  
     e(  2 -  2) =      3.79769  eV     1   --> A_1  D_1  S_1  
     e(  3 -  4) =      6.57146  eV     2   --> B_1  D_3  S_3  
     e(  3 -  4) =      6.57146  eV     2   --> B_2  D_4  S_4  
     e(  5 -  5) =     11.63087  eV     1   --> A_1  D_1  S_1  
     e(  6 -  6) =     14.24752  eV     1   --> A_1  D_1  S_1  
     e(  7 -  8) =     21.67601  eV     2   --> B_1  D_3  S_3  
     e(  7 -  8) =     21.67601  eV     2   --> B_2  D_4  S_4  

 **************************************************************************

 **************************************************************************

                    xk=(  -0.72000,   0.00000,   0.00000  )

     Band symmetry, C_2v (mm2)  point group:

     e(  1 -  1) =     -2.83441  eV     1   --> A_1  D_1  S_1  
     e(  2 -  2) =      3.69317  eV     1   --> A_1  D_1  S_1  
     e(  3 -  4) =      6.54233  eV     2   --> B_1  D_3  S_3  
     e(  3 -  4) =      6.54233  eV     2   --> B_2  D_4  S_4  
     e(  5 -  5) =     11.56729  eV     1   --> A_1  D_1  S_1  
     e(  6 -  6) =     14.20162  eV     1   --> A_1  D_1  S_1  
     e(  7 -  8) =     21.75994  eV     2   --> B_1  D_3  S_3  
     e(  7 -  8) =     21.75994  eV     2   --> B_2  D_4  S_4  

 **************************************************************************

 **************************************************************************

                    xk=(  -0.73000,   0.00000,   0.00000  )

     Band symmetry, C_2v (mm2)  point group:

     e(  1 -  1) =     -2.75386  eV     1   --> A_1  D_1  S_1  
     e(  2 -  2) =      3.58886  eV     1   --> A_1  D_1  S_1  
     e(  3 -  4) =      6.51414  eV     2   --> B_1  D_3  S_3  
     e(  3 -  4) =      6.51414  eV     2   --> B_2  D_4  S_4  
     e(  5 -  5) =     11.50568  eV     1   --> A_1  D_1  S_1  
     e(  6 -  6) =     14.15741  eV     1   --> A_1  D_1  S_1  
     e(  7 -  8) =     21.84262  eV     2   --> B_1  D_3  S_3  
     e(  7 -  8) =     21.84262  eV     2   --> B_2  D_4  S_4  

 **************************************************************************

 **************************************************************************

                    xk=(  -0.74000,   0.00000,   0.00000  )

     Band symmetry, C_2v (mm2)  point group:

     e(  1 -  1) =     -2.67291  eV     1   --> A_1  D_1  S_1  
     e(  2 -  2) =      3.48484  eV     1   --> A_1  D_1  S_1  
     e(  3 -  4) =      6.48691  eV     2   --> B_1  D_3  S_3  
     e(  3 -  4) =      6.48691  eV     2   --> B_2  D_4  S_4  
     e(  5 -  5) =     11.44608  eV     1   --> A_1  D_1  S_1  
     e(  6 -  6) =     14.11488  eV     1   --> A_1  D_1  S_1  
     e(  7 -  8) =     21.92394  eV     2   --> B_1  D_3  S_3  
     e(  7 -  8) =     21.92394  eV     2   --> B_2  D_4  S_4  

 **************************************************************************

 **************************************************************************

                    xk=(  -0.75000,   0.00000,   0.00000  )

     Band symmetry, C_2v (mm2)  point group:

     e(  1 -  1) =     -2.59163  eV     1   --> A_1  D_1  S_1  
     e(  2 -  2) =      3.38119  eV     1   --> A_1  D_1  S_1  
     e(  3 -  4) =      6.46064  eV     2   --> B_1  D_3  S_3  
     e(  3 -  4) =      6.46064  eV     2   --> B_2  D_4  S_4  
     e(  5 -  5) =     11.38854  eV     1   --> A_1  D_1  S_1  
     e(  6 -  6) =     14.07403  eV     1   --> A_1  D_1  S_1  
     e(  7 -  8) =     22.00381  eV     2   --> B_1  D_3  S_3  
     e(  7 -  8) =     22.00381  eV     2   --> B_2  D_4  S_4  

 **************************************************************************

 **************************************************************************

                    xk=(  -0.76000,   0.00000,   0.00000  )

     Band symmetry, C_2v (mm2)  point group:

     e(  1 -  1) =     -2.51010  eV     1   --> A_1  D_1  S_1  
     e(  2 -  2) =      3.27801  eV     1   --> A_1  D_1  S_1  
     e(  3 -  4) =      6.43534  eV     2   --> B_1  D_3  S_3  
     e(  3 -  4) =      6.43534  eV     2   --> B_2  D_4  S_4  
     e(  5 -  5) =     11.33308  eV     1   --> A_1  D_1  S_1  
     e(  6 -  6) =     14.03483  eV     1   --> A_1  D_1  S_1  
     e(  7 -  8) =     22.08211  eV     2   --> B_1  D_3  S_3  
     e(  7 -  8) =     22.08211  eV     2   --> B_2  D_4  S_4  

 **************************************************************************

 **************************************************************************

                    xk=(  -0.77000,   0.00000,   0.00000  )

     Band symmetry, C_2v (mm2)  point group:

     e(  1 -  1) =     -2.42842  eV     1   --> A_1  D_1  S_1  
     e(  2 -  2) =      3.17540  eV     1   --> A_1  D_1  S_1  
     e(  3 -  4) =      6.41101  eV     2   --> B_1  D_3  S_3  
     e(  3 -  4) =      6.41101  eV     2   --> B_2  D_4  S_4  
     e(  5 -  5) =     11.27973  eV     1   --> A_1  D_1  S_1  
     e(  6 -  6) =     13.99730  eV     1   --> A_1  D_1  S_1  
     e(  7 -  8) =     22.15874  eV     2   --> B_1  D_3  S_3  
     e(  7 -  8) =     22.15874  eV     2   --> B_2  D_4  S_4  

 **************************************************************************

 **************************************************************************

                    xk=(  -0.78000,   0.00000,   0.00000  )

     Band symmetry, C_2v (mm2)  point group:

     e(  1 -  1) =     -2.34667  eV     1   --> A_1  D_1  S_1  
     e(  2 -  2) =      3.07347  eV     1   --> A_1  D_1  S_1  
     e(  3 -  4) =      6.38767  eV     2   --> B_1  D_3  S_3  
     e(  3 -  4) =      6.38767  eV     2   --> B_2  D_4  S_4  
     e(  5 -  5) =     11.22853  eV     1   --> A_1  D_1  S_1  
     e(  6 -  6) =     13.96142  eV     1   --> A_1  D_1  S_1  
     e(  7 -  8) =     22.23358  eV     2   --> B_1  D_3  S_3  
     e(  7 -  8) =     22.23358  eV     2   --> B_2  D_4  S_4  

 **************************************************************************

 **************************************************************************

                    xk=(  -0.79000,   0.00000,   0.00000  )

     Band symmetry, C_2v (mm2)  point group:

     e(  1 -  1) =     -2.26497  eV     1   --> A_1  D_1  S_1  
     e(  2 -  2) =      2.97235  eV     1   --> A_1  D_1  S_1  
     e(  3 -  4) =      6.36532  eV     2   --> B_1  D_3  S_3  
     e(  3 -  4) =      6.36532  eV     2   --> B_2  D_4  S_4  
     e(  5 -  5) =     11.17948  eV     1   --> A_1  D_1  S_1  
     e(  6 -  6) =     13.92718  eV     1   --> A_1  D_1  S_1  
     e(  7 -  8) =     22.30651  eV     2   --> B_1  D_3  S_3  
     e(  7 -  8) =     22.30651  eV     2   --> B_2  D_4  S_4  

 **************************************************************************

 **************************************************************************

                    xk=(  -0.80000,   0.00000,   0.00000  )

     Band symmetry, C_2v (mm2)  point group:

     e(  1 -  1) =     -2.18345  eV     1   --> A_1  D_1  S_1  
     e(  2 -  2) =      2.87208  eV     1   --> A_1  D_1  S_1  
     e(  3 -  4) =      6.34397  eV     2   --> B_1  D_3  S_3  
     e(  3 -  4) =      6.34397  eV     2   --> B_2  D_4  S_4  
     e(  5 -  5) =     11.13262  eV     1   --> A_1  D_1  S_1  
     e(  6 -  6) =     13.89427  eV     1   --> A_1  D_1  S_1  
     e(  7 -  8) =     22.37737  eV     2   --> B_1  D_3  S_3  
     e(  7 -  8) =     22.37737  eV     2   --> B_2  D_4  S_4  

 **************************************************************************

 **************************************************************************

                    xk=(  -0.81000,   0.00000,   0.00000  )

     Band symmetry, C_2v (mm2)  point group:

     e(  1 -  1) =     -2.10225  eV     1   --> A_1  D_1  S_1  
     e(  2 -  2) =      2.77302  eV     1   --> A_1  D_1  S_1  
     e(  3 -  4) =      6.32363  eV     2   --> B_1  D_3  S_3  
     e(  3 -  4) =      6.32363  eV     2   --> B_2  D_4  S_4  
     e(  5 -  5) =     11.08796  eV     1   --> A_1  D_1  S_1  
     e(  6 -  6) =     13.86330  eV     1   --> A_1  D_1  S_1  
     e(  7 -  8) =     22.44610  eV     2   --> B_1  D_3  S_3  
     e(  7 -  8) =     22.44610  eV     2   --> B_2  D_4  S_4  

 **************************************************************************

 **************************************************************************

                    xk=(  -0.82000,   0.00000,   0.00000  )

     Band symmetry, C_2v (mm2)  point group:

     e(  1 -  1) =     -2.02153  eV     1   --> A_1  D_1  S_1  
     e(  2 -  2) =      2.67526  eV     1   --> A_1  D_1  S_1  
     e(  3 -  4) =      6.30429  eV     2   --> B_1  D_3  S_3  
     e(  3 -  4) =      6.30429  eV     2   --> B_2  D_4  S_4  
     e(  5 -  5) =     11.04552  eV     1   --> A_1  D_1  S_1  
     e(  6 -  6) =     13.83395  eV     1   --> A_1  D_1  S_1  
     e(  7 -  8) =     22.51252  eV     2   --> B_1  D_3  S_3  
     e(  7 -  8) =     22.51252  eV     2   --> B_2  D_4  S_4  

 **************************************************************************

 **************************************************************************

                    xk=(  -0.83000,   0.00000,   0.00000  )

     Band symmetry, C_2v (mm2)  point group:

     e(  1 -  1) =     -1.94147  eV     1   --> A_1  D_1  S_1  
     e(  2 -  2) =      2.57898  eV     1   --> A_1  D_1  S_1  
     e(  3 -  4) =      6.28597  eV     2   --> B_1  D_3  S_3  
     e(  3 -  4) =      6.28597  eV     2   --> B_2  D_4  S_4  
     e(  5 -  5) =     11.00532  eV     1   --> A_1  D_1  S_1  
     e(  6 -  6) =     13.80623  eV     1   --> A_1  D_1  S_1  
     e(  7 -  8) =     22.57650  eV     2   --> B_1  D_3  S_3  
     e(  7 -  8) =     22.57650  eV     2   --> B_2  D_4  S_4  

 **************************************************************************

 **************************************************************************

                    xk=(  -0.84000,   0.00000,   0.00000  )

     Band symmetry, C_2v (mm2)  point group:

     e(  1 -  1) =     -1.86229  eV     1   --> A_1  D_1  S_1  
     e(  2 -  2) =      2.48432  eV     1   --> A_1  D_1  S_1  
     e(  3 -  4) =      6.26852  eV     2   --> B_1  D_3  S_3  
     e(  3 -  4) =      6.26852  eV     2   --> B_2  D_4  S_4  
     e(  5 -  5) =     10.96728  eV     1   --> A_1  D_1  S_1  
     e(  6 -  6) =     13.78002  eV     1   --> A_1  D_1  S_1  
     e(  7 -  8) =     22.63752  eV     2   --> B_1  D_3  S_3  
     e(  7 -  8) =     22.63752  eV     2   --> B_2  D_4  S_4  

 **************************************************************************

 **************************************************************************

                    xk=(  -0.85000,   0.00000,   0.00000  )

     Band symmetry, C_2v (mm2)  point group:

     e(  1 -  1) =     -1.78422  eV     1   --> A_1  D_1  S_1  
     e(  2 -  2) =      2.39172  eV     1   --> A_1  D_1  S_1  
     e(  3 -  4) =      6.25224  eV     2   --> B_1  D_3  S_3  
     e(  3 -  4) =      6.25224  eV     2   --> B_2  D_4  S_4  
     e(  5 -  5) =     10.93159  eV     1   --> A_1  D_1  S_1  
     e(  6 -  6) =     13.75552  eV     1   --> A_1  D_1  S_1  
     e(  7 -  8) =     22.69618  eV     2   --> B_1  D_3  S_3  
     e(  7 -  8) =     22.69618  eV     2   --> B_2  D_4  S_4  

 **************************************************************************

 **************************************************************************

                    xk=(  -0.86000,   0.00000,   0.00000  )

     Band symmetry, C_2v (mm2)  point group:

     e(  1 -  1) =     -1.70753  eV     1   --> A_1  D_1  S_1  
     e(  2 -  2) =      2.30137  eV     1   --> A_1  D_1  S_1  
     e(  3 -  4) =      6.23700  eV     2   --> B_1  D_3  S_3  
     e(  3 -  4) =      6.23700  eV     2   --> B_2  D_4  S_4  
     e(  5 -  5) =     10.89816  eV     1   --> A_1  D_1  S_1  
     e(  6 -  6) =     13.73262  eV     1   --> A_1  D_1  S_1  
     e(  7 -  8) =     22.75196  eV     2   --> B_1  D_3  S_3  
     e(  7 -  8) =     22.75196  eV     2   --> B_2  D_4  S_4  

 **************************************************************************

 **************************************************************************

                    xk=(  -0.87000,   0.00000,   0.00000  )

     Band symmetry, C_2v (mm2)  point group:

     e(  1 -  1) =     -1.63254  eV     1   --> A_1  D_1  S_1  
     e(  2 -  2) =      2.21359  eV     1   --> A_1  D_1  S_1  
     e(  3 -  4) =      6.22279  eV     2   --> B_1  D_3  S_3  
     e(  3 -  4) =      6.22279  eV     2   --> B_2  D_4  S_4  
     e(  5 -  5) =     10.86701  eV     1   --> A_1  D_1  S_1  
     e(  6 -  6) =     13.71132  eV     1   --> A_1  D_1  S_1  
     e(  7 -  8) =     22.80472  eV     2   --> B_1  D_3  S_3  
     e(  7 -  8) =     22.80472  eV     2   --> B_2  D_4  S_4  

 **************************************************************************

 **************************************************************************

                    xk=(  -0.88000,   0.00000,   0.00000  )

     Band symmetry, C_2v (mm2)  point group:

     e(  1 -  1) =     -1.55961  eV     1   --> A_1  D_1  S_1  
     e(  2 -  2) =      2.12876  eV     1   --> A_1  D_1  S_1  
     e(  3 -  4) =      6.20962  eV     2   --> B_1  D_3  S_3  
     e(  3 -  4) =      6.20962  eV     2   --> B_2  D_4  S_4  
     e(  5 -  5) =     10.83815  eV     1   --> A_1  D_1  S_1  
     e(  6 -  6) =     13.69162  eV     1   --> A_1  D_1  S_1  
     e(  7 -  8) =     22.85431  eV     2   --> B_1  D_3  S_3  
     e(  7 -  8) =     22.85431  eV     2   --> B_2  D_4  S_4  

 **************************************************************************

 **************************************************************************

                    xk=(  -0.89000,   0.00000,   0.00000  )

     Band symmetry, C_2v (mm2)  point group:

     e(  1 -  1) =     -1.48913  eV     1   --> A_1  D_1  S_1  
     e(  2 -  2) =      2.04730  eV     1   --> A_1  D_1  S_1  
     e(  3 -  4) =      6.19749  eV     2   --> B_1  D_3  S_3  
     e(  3 -  4) =      6.19749  eV     2   --> B_2  D_4  S_4  
     e(  5 -  5) =     10.81157  eV     1   --> A_1  D_1  S_1  
     e(  6 -  6) =     13.67351  eV     1   --> A_1  D_1  S_1  
     e(  7 -  8) =     22.90058  eV     2   --> B_1  D_3  S_3  
     e(  7 -  8) =     22.90058  eV     2   --> B_2  D_4  S_4  

 **************************************************************************

 **************************************************************************

                    xk=(  -0.90000,   0.00000,   0.00000  )

     Band symmetry, C_2v (mm2)  point group:

     e(  1 -  1) =     -1.42158  eV     1   --> A_1  D_1  S_1  
     e(  2 -  2) =      1.96967  eV     1   --> A_1  D_1  S_1  
     e(  3 -  4) =      6.18640  eV     2   --> B_1  D_3  S_3  
     e(  3 -  4) =      6.18640  eV     2   --> B_2  D_4  S_4  
     e(  5 -  5) =     10.78730  eV     1   --> A_1  D_1  S_1  
     e(  6 -  6) =     13.65698  eV     1   --> A_1  D_1  S_1  
     e(  7 -  8) =     22.94340  eV     2   --> B_1  D_3  S_3  
     e(  7 -  8) =     22.94340  eV     2   --> B_2  D_4  S_4  

 **************************************************************************

 **************************************************************************

                    xk=(  -0.91000,   0.00000,   0.00000  )

     Band symmetry, C_2v (mm2)  point group:

     e(  1 -  1) =     -1.35746  eV     1   --> A_1  D_1  S_1  
     e(  2 -  2) =      1.89642  eV     1   --> A_1  D_1  S_1  
     e(  3 -  4) =      6.17636  eV     2   --> B_1  D_3  S_3  
     e(  3 -  4) =      6.17636  eV     2   --> B_2  D_4  S_4  
     e(  5 -  5) =     10.76532  eV     1   --> A_1  D_1  S_1  
     e(  6 -  6) =     13.64204  eV     1   --> A_1  D_1  S_1  
     e(  7 -  8) =     22.98262  eV     2   --> B_1  D_3  S_3  
     e(  7 -  8) =     22.98262  eV     2   --> B_2  D_4  S_4  

 **************************************************************************

 **************************************************************************

                    xk=(  -0.92000,   0.00000,   0.00000  )

     Band symmetry, C_2v (mm2)  point group:

     e(  1 -  1) =     -1.29737  eV     1   --> A_1  D_1  S_1  
     e(  2 -  2) =      1.82812  eV     1   --> A_1  D_1  S_1  
     e(  3 -  4) =      6.16737  eV     2   --> B_1  D_3  S_3  
     e(  3 -  4) =      6.16737  eV     2   --> B_2  D_4  S_4  
     e(  5 -  5) =     10.74565  eV     1   --> A_1  D_1  S_1  
     e(  6 -  6) =     13.62868  eV     1   --> A_1  D_1  S_1  
     e(  7 -  8) =     23.01810  eV     2   --> B_1  D_3  S_3  
     e(  7 -  8) =     23.01810  eV     2   --> B_2  D_4  S_4  

 **************************************************************************

 **************************************************************************

                    xk=(  -0.93000,   0.00000,   0.00000  )

     Band symmetry, C_2v (mm2)  point group:

     e(  1 -  1) =     -1.24194  eV     1   --> A_1  D_1  S_1  
     e(  2 -  2) =      1.76541  eV     1   --> A_1  D_1  S_1  
     e(  3 -  4) =      6.15943  eV     2   --> B_1  D_3  S_3  
     e(  3 -  4) =      6.15943  eV     2   --> B_2  D_4  S_4  
     e(  5 -  5) =     10.72829  eV     1   --> A_1  D_1  S_1  
     e(  6 -  6) =     13.61690  eV     1   --> A_1  D_1  S_1  
     e(  7 -  8) =     23.04974  eV     2   --> B_1  D_3  S_3  
     e(  7 -  8) =     23.04974  eV     2   --> B_2  D_4  S_4  

 **************************************************************************

 **************************************************************************

                    xk=(  -0.94000,   0.00000,   0.00000  )

     Band symmetry, C_2v (mm2)  point group:

     e(  1 -  1) =     -1.19184  eV     1   --> A_1  D_1  S_1  
     e(  2 -  2) =      1.70900  eV     1   --> A_1  D_1  S_1  
     e(  3 -  4) =      6.15255  eV     2   --> B_1  D_3  S_3  
     e(  3 -  4) =      6.15255  eV     2   --> B_2  D_4  S_4  
     e(  5 -  5) =     10.71324  eV     1   --> A_1  D_1  S_1  
     e(  6 -  6) =     13.60670  eV     1   --> A_1  D_1  S_1  
     e(  7 -  8) =     23.07741  eV     2   --> B_1  D_3  S_3  
     e(  7 -  8) =     23.07741  eV     2   --> B_2  D_4  S_4  

 **************************************************************************

 **************************************************************************

                    xk=(  -0.95000,   0.00000,   0.00000  )

     Band symmetry, C_2v (mm2)  point group:

     e(  1 -  1) =     -1.14771  eV     1   --> A_1  D_1  S_1  
     e(  2 -  2) =      1.65963  eV     1   --> A_1  D_1  S_1  
     e(  3 -  4) =      6.14677  eV     2   --> B_1  D_3  S_3  
     e(  3 -  4) =      6.14677  eV     2   --> B_2  D_4  S_4  
     e(  5 -  5) =     10.70056  eV     1   --> A_1  D_1  S_1  
     e(  6 -  6) =     13.59811  eV     1   --> A_1  D_1  S_1  
     e(  7 -  8) =     23.10146  eV     2   --> B_1  D_3  S_3  
     e(  7 -  8) =     23.10146  eV     2   --> B_2  D_4  S_4  

 **************************************************************************

 **************************************************************************

                    xk=(  -0.96000,   0.00000,   0.00000  )

     Band symmetry, C_2v (mm2)  point group:

     e(  1 -  1) =     -1.11041  eV     1   --> A_1  D_1  S_1  
     e(  2 -  2) =      1.61795  eV     1   --> A_1  D_1  S_1  
     e(  3 -  4) =      6.14200  eV     2   --> B_1  D_3  S_3  
     e(  3 -  4) =      6.14200  eV     2   --> B_2  D_4  S_4  
     e(  5 -  5) =     10.69014  eV     1   --> A_1  D_1  S_1  
     e(  6 -  6) =     13.59105  eV     1   --> A_1  D_1  S_1  
     e(  7 -  8) =     23.12089  eV     2   --> B_1  D_3  S_3  
     e(  7 -  8) =     23.12089  eV     2   --> B_2  D_4  S_4  

 **************************************************************************

 **************************************************************************

                    xk=(  -0.97000,   0.00000,   0.00000  )

     Band symmetry, C_2v (mm2)  point group:

     e(  1 -  1) =     -1.08056  eV     1   --> A_1  D_1  S_1  
     e(  2 -  2) =      1.58468  eV     1   --> A_1  D_1  S_1  
     e(  3 -  4) =      6.13829  eV     2   --> B_1  D_3  S_3  
     e(  3 -  4) =      6.13829  eV     2   --> B_2  D_4  S_4  
     e(  5 -  5) =     10.68203  eV     1   --> A_1  D_1  S_1  
     e(  6 -  6) =     13.58556  eV     1   --> A_1  D_1  S_1  
     e(  7 -  8) =     23.13609  eV     2   --> B_1  D_3  S_3  
     e(  7 -  8) =     23.13609  eV     2   --> B_2  D_4  S_4  

 **************************************************************************

 **************************************************************************

                    xk=(  -0.98000,   0.00000,   0.00000  )

     Band symmetry, C_2v (mm2)  point group:

     e(  1 -  1) =     -1.05878  eV     1   --> A_1  D_1  S_1  
     e(  2 -  2) =      1.56031  eV     1   --> A_1  D_1  S_1  
     e(  3 -  4) =      6.13562  eV     2   --> B_1  D_3  S_3  
     e(  3 -  4) =      6.13562  eV     2   --> B_2  D_4  S_4  
     e(  5 -  5) =     10.67622  eV     1   --> A_1  D_1  S_1  
     e(  6 -  6) =     13.58124  eV     1   --> A_1  D_1  S_1  
     e(  7 -  8) =     23.14691  eV     2   --> B_1  D_3  S_3  
     e(  7 -  8) =     23.14691  eV     2   --> B_2  D_4  S_4  

 **************************************************************************

 **************************************************************************

                    xk=(  -0.99000,   0.00000,   0.00000  )

     Band symmetry, C_2v (mm2)  point group:

     e(  1 -  1) =     -1.04549  eV     1   --> A_1  D_1  S_1  
     e(  2 -  2) =      1.54555  eV     1   --> A_1  D_1  S_1  
[...]
     e(  4 -  4) =      6.66657  eV     1   --> A''            
     e(  5 -  5) =     12.31590  eV     1   --> A'             
     e(  6 -  6) =     16.35580  eV     1   --> A'             
     e(  7 -  7) =     20.94602  eV     1   --> A''            
     e(  8 -  8) =     20.95861  eV     1   --> A'             

 **************************************************************************

 **************************************************************************

                    xk=(  -0.87000,   0.21750,   0.21750  )

     Band symmetry, C_s (m)     point group:

     e(  1 -  1) =     -1.40341  eV     1   --> A'             
     e(  2 -  2) =      2.17901  eV     1   --> A'             
     e(  3 -  3) =      4.45006  eV     1   --> A'             
     e(  4 -  4) =      6.66336  eV     1   --> A''            
     e(  5 -  5) =     12.30840  eV     1   --> A'             
     e(  6 -  6) =     16.39285  eV     1   --> A'             
     e(  7 -  7) =     20.97682  eV     1   --> A''            
     e(  8 -  8) =     21.02342  eV     1   --> A'             

 **************************************************************************

 **************************************************************************

                    xk=(  -0.88000,   0.22000,   0.22000  )

     Band symmetry, C_s (m)     point group:

     e(  1 -  1) =     -1.34673  eV     1   --> A'             
     e(  2 -  2) =      2.14559  eV     1   --> A'             
     e(  3 -  3) =      4.38033  eV     1   --> A'             
     e(  4 -  4) =      6.66123  eV     1   --> A''            
     e(  5 -  5) =     12.30294  eV     1   --> A'             
     e(  6 -  6) =     16.43129  eV     1   --> A'             
     e(  7 -  7) =     21.00501  eV     1   --> A''            
     e(  8 -  8) =     21.08747  eV     1   --> A'             

 **************************************************************************

 **************************************************************************

                    xk=(  -0.89000,   0.22250,   0.22250  )

     Band symmetry, C_s (m)     point group:

     e(  1 -  1) =     -1.29409  eV     1   --> A'             
     e(  2 -  2) =      2.11644  eV     1   --> A'             
     e(  3 -  3) =      4.31290  eV     1   --> A'             
     e(  4 -  4) =      6.66020  eV     1   --> A''            
     e(  5 -  5) =     12.29955  eV     1   --> A'             
     e(  6 -  6) =     16.47116  eV     1   --> A'             
     e(  7 -  7) =     21.03038  eV     1   --> A''            
     e(  8 -  8) =     21.15068  eV     1   --> A'             

 **************************************************************************

 **************************************************************************

                    xk=(  -0.90000,   0.22500,   0.22500  )

     Band symmetry, C_s (m)     point group:

     e(  1 -  1) =     -1.24580  eV     1   --> A'             
     e(  2 -  2) =      2.09166  eV     1   --> A'             
     e(  3 -  3) =      4.24803  eV     1   --> A'             
     e(  4 -  4) =      6.66026  eV     1   --> A''            
     e(  5 -  5) =     12.29824  eV     1   --> A'             
     e(  6 -  6) =     16.51243  eV     1   --> A'             
     e(  7 -  7) =     21.05259  eV     1   --> A''            
     e(  8 -  8) =     21.21287  eV     1   --> A'             

 **************************************************************************

 **************************************************************************

                    xk=(  -0.91000,   0.22750,   0.22750  )

     Band symmetry, C_s (m)     point group:

     e(  1 -  1) =     -1.20216  eV     1   --> A'             
     e(  2 -  2) =      2.07132  eV     1   --> A'             
     e(  3 -  3) =      4.18598  eV     1   --> A'             
     e(  4 -  4) =      6.66140  eV     1   --> A''            
     e(  5 -  5) =     12.29900  eV     1   --> A'             
     e(  6 -  6) =     16.55505  eV     1   --> A'             
     e(  7 -  7) =     21.07131  eV     1   --> A''            
     e(  8 -  8) =     21.27380  eV     1   --> A'             

 **************************************************************************

 **************************************************************************

                    xk=(  -0.92000,   0.23000,   0.23000  )

     Band symmetry, C_s (m)     point group:

     e(  1 -  1) =     -1.16344  eV     1   --> A'             
     e(  2 -  2) =      2.05537  eV     1   --> A'             
     e(  3 -  3) =      4.12703  eV     1   --> A'             
     e(  4 -  4) =      6.66363  eV     1   --> A''            
     e(  5 -  5) =     12.30182  eV     1   --> A'             
     e(  6 -  6) =     16.59885  eV     1   --> A'             
     e(  7 -  7) =     21.08612  eV     1   --> A''            
     e(  8 -  8) =     21.33312  eV     1   --> A'             

 **************************************************************************

 **************************************************************************

                    xk=(  -0.93000,   0.23250,   0.23250  )

     Band symmetry, C_s (m)     point group:

     e(  1 -  1) =     -1.12986  eV     1   --> A'             
     e(  2 -  2) =      2.04376  eV     1   --> A'             
     e(  3 -  3) =      4.07158  eV     1   --> A'             
     e(  4 -  4) =      6.66693  eV     1   --> A''            
     e(  5 -  5) =     12.30669  eV     1   --> A'             
     e(  6 -  6) =     16.64397  eV     1   --> A'             
     e(  7 -  7) =     21.09674  eV     1   --> A''            
     e(  8 -  8) =     21.39047  eV     1   --> A'             

 **************************************************************************

 **************************************************************************

                    xk=(  -0.94000,   0.23500,   0.23500  )

     Band symmetry, C_s (m)     point group:

     e(  1 -  1) =     -1.10157  eV     1   --> A'             
     e(  2 -  2) =      2.03629  eV     1   --> A'             
     e(  3 -  3) =      4.02000  eV     1   --> A'             
     e(  4 -  4) =      6.67134  eV     1   --> A''            
     e(  5 -  5) =     12.31363  eV     1   --> A'             
     e(  6 -  6) =     16.69031  eV     1   --> A'             
     e(  7 -  7) =     21.10276  eV     1   --> A''            
     e(  8 -  8) =     21.44518  eV     1   --> A'             

 **************************************************************************

 **************************************************************************

                    xk=(  -0.95000,   0.23750,   0.23750  )

     Band symmetry, C_s (m)     point group:

     e(  1 -  1) =     -1.07869  eV     1   --> A'             
     e(  2 -  2) =      2.03265  eV     1   --> A'             
     e(  3 -  3) =      3.97269  eV     1   --> A'             
     e(  4 -  4) =      6.67680  eV     1   --> A''            
     e(  5 -  5) =     12.32261  eV     1   --> A'             
     e(  6 -  6) =     16.73779  eV     1   --> A'             
     e(  7 -  7) =     21.10378  eV     1   --> A''            
     e(  8 -  8) =     21.49620  eV     1   --> A'             

 **************************************************************************

 **************************************************************************

                    xk=(  -0.96000,   0.24000,   0.24000  )

     Band symmetry, C_s (m)     point group:

     e(  1 -  1) =     -1.06127  eV     1   --> A'             
     e(  2 -  2) =      2.03238  eV     1   --> A'             
     e(  3 -  3) =      3.93011  eV     1   --> A'             
     e(  4 -  4) =      6.68328  eV     1   --> A''            
     e(  5 -  5) =     12.33362  eV     1   --> A'             
     e(  6 -  6) =     16.78618  eV     1   --> A'             
     e(  7 -  7) =     21.09934  eV     1   --> A''            
     e(  8 -  8) =     21.54174  eV     1   --> A'             

 **************************************************************************

 **************************************************************************

                    xk=(  -0.97000,   0.24250,   0.24250  )

     Band symmetry, C_s (m)     point group:

     e(  1 -  1) =     -1.04929  eV     1   --> A'             
     e(  2 -  2) =      2.03498  eV     1   --> A'             
     e(  3 -  3) =      3.89280  eV     1   --> A'             
     e(  4 -  4) =      6.69085  eV     1   --> A''            
     e(  5 -  5) =     12.34664  eV     1   --> A'             
     e(  6 -  6) =     16.83551  eV     1   --> A'             
     e(  7 -  7) =     21.08926  eV     1   --> A''            
     e(  8 -  8) =     21.57951  eV     1   --> A'             

 **************************************************************************

 **************************************************************************

                    xk=(  -0.98000,   0.24500,   0.24500  )

     Band symmetry, C_s (m)     point group:

     e(  1 -  1) =     -1.04263  eV     1   --> A'             
     e(  2 -  2) =      2.03981  eV     1   --> A'             
     e(  3 -  3) =      3.86132  eV     1   --> A'             
     e(  4 -  4) =      6.69941  eV     1   --> A''            
     e(  5 -  5) =     12.36170  eV     1   --> A'             
     e(  6 -  6) =     16.88565  eV     1   --> A'             
     e(  7 -  7) =     21.07296  eV     1   --> A''            
     e(  8 -  8) =     21.60549  eV     1   --> A'             

 **************************************************************************

 **************************************************************************

                    xk=(  -0.99000,   0.24750,   0.24750  )

     Band symmetry, C_s (m)     point group:

     e(  1 -  1) =     -1.04115  eV     1   --> A'             
     e(  2 -  2) =      2.04614  eV     1   --> A'             
     e(  3 -  3) =      3.83623  eV     1   --> A'             
     e(  4 -  4) =      6.70902  eV     1   --> A''            
     e(  5 -  5) =     12.37879  eV     1   --> A'             
     e(  6 -  6) =     16.93658  eV     1   --> A'             
     e(  7 -  7) =     21.05036  eV     1   --> A''            
     e(  8 -  8) =     21.61429  eV     1   --> A'             

 **************************************************************************

 **************************************************************************

                    xk=(  -1.00000,   0.25000,   0.25000  )

     Band symmetry, C_s (m)     point group:

     e(  1 -  1) =     -1.04460  eV     1   --> A'             
     e(  2 -  2) =      2.05319  eV     1   --> A'             
     e(  3 -  3) =      3.81817  eV     1   --> A'             
     e(  4 -  4) =      6.71970  eV     1   --> A''            
     e(  5 -  5) =     12.39790  eV     1   --> A'             
     e(  6 -  6) =     16.98818  eV     1   --> A'             
     e(  7 -  7) =     21.02163  eV     1   --> A''            
     e(  8 -  8) =     21.60069  eV     1   --> A'             

 **************************************************************************

 **************************************************************************

                    xk=(  -1.00000,   0.22500,   0.22500  )

     Band symmetry, C_s (m)     point group:

     e(  1 -  1) =     -0.99973  eV     1   --> A'             
     e(  2 -  2) =      1.97977  eV     1   --> A'             
     e(  3 -  3) =      3.99398  eV     1   --> A'             
     e(  4 -  4) =      6.61248  eV     1   --> A''            
     e(  5 -  5) =     12.19890  eV     1   --> A'             
     e(  6 -  6) =     16.46186  eV     1   --> A'             
     e(  7 -  7) =     21.34041  eV     1   --> A''            
     e(  8 -  8) =     21.85366  eV     1   --> A'             

 **************************************************************************

 **************************************************************************

                    xk=(  -1.00000,   0.20000,   0.20000  )

     Band symmetry, C_s (m)     point group:

     e(  1 -  1) =     -0.97808  eV     1   --> A'             
     e(  2 -  2) =      1.90386  eV     1   --> A'             
     e(  3 -  3) =      4.22574  eV     1   --> A'             
     e(  4 -  4) =      6.51471  eV     1   --> A''            
     e(  5 -  5) =     12.00244  eV     1   --> A'             
     e(  6 -  6) =     15.93600  eV     1   --> A'             
     e(  7 -  7) =     21.65196  eV     1   --> A''            
     e(  8 -  8) =     22.09116  eV     1   --> A'             

 **************************************************************************

 **************************************************************************

                    xk=(  -1.00000,   0.17500,   0.17500  )

     Band symmetry, C_s (m)     point group:

     e(  1 -  1) =     -0.97317  eV     1   --> A'             
     e(  2 -  2) =      1.82900  eV     1   --> A'             
     e(  3 -  3) =      4.49975  eV     1   --> A'             
     e(  4 -  4) =      6.42727  eV     1   --> A''            
     e(  5 -  5) =     11.80577  eV     1   --> A'             
     e(  6 -  6) =     15.43112  eV     1   --> A'             
     e(  7 -  7) =     21.95227  eV     1   --> A''            
     e(  8 -  8) =     22.31240  eV     1   --> A'             

 **************************************************************************

 **************************************************************************

                    xk=(  -1.00000,   0.15000,   0.15000  )

     Band symmetry, C_s (m)     point group:

     e(  1 -  1) =     -0.97926  eV     1   --> A'             
     e(  2 -  2) =      1.75850  eV     1   --> A'             
     e(  3 -  3) =      4.80088  eV     1   --> A'             
     e(  4 -  4) =      6.35052  eV     1   --> A''            
     e(  5 -  5) =     11.60592  eV     1   --> A'             
     e(  6 -  6) =     14.96400  eV     1   --> A'             
     e(  7 -  7) =     22.23420  eV     1   --> A''            
     e(  8 -  8) =     22.51511  eV     1   --> A'             

 **************************************************************************

 **************************************************************************

                    xk=(  -1.00000,   0.12500,   0.12500  )

     Band symmetry, C_s (m)     point group:

     e(  1 -  1) =     -0.99146  eV     1   --> A'             
     e(  2 -  2) =      1.69521  eV     1   --> A'             
     e(  3 -  3) =      5.11323  eV     1   --> A'             
     e(  4 -  4) =      6.28492  eV     1   --> A''            
     e(  5 -  5) =     11.40195  eV     1   --> A'             
     e(  6 -  6) =     14.55005  eV     1   --> A'             
     e(  7 -  7) =     22.49143  eV     1   --> A''            
     e(  8 -  8) =     22.69695  eV     1   --> A'             

 **************************************************************************

 **************************************************************************

                    xk=(  -1.00000,   0.10000,   0.10000  )

     Band symmetry, C_s (m)     point group:

     e(  1 -  1) =     -1.00596  eV     1   --> A'             
     e(  2 -  2) =      1.64118  eV     1   --> A'             
     e(  3 -  3) =      5.41935  eV     1   --> A'             
     e(  4 -  4) =      6.23081  eV     1   --> A''            
     e(  5 -  5) =     11.19670  eV     1   --> A'             
     e(  6 -  6) =     14.20185  eV     1   --> A'             
     e(  7 -  7) =     22.71659  eV     1   --> A''            
     e(  8 -  8) =     22.85403  eV     1   --> A'             

 **************************************************************************

 **************************************************************************

                    xk=(  -1.00000,   0.07500,   0.07500  )

     Band symmetry, C_s (m)     point group:

     e(  1 -  1) =     -1.01990  eV     1   --> A'             
     e(  2 -  2) =      1.59783  eV     1   --> A'             
     e(  3 -  3) =      5.69883  eV     1   --> A'             
     e(  4 -  4) =      6.18844  eV     1   --> A''            
     e(  5 -  5) =     11.00014  eV     1   --> A'             
     e(  6 -  6) =     13.92797  eV     1   --> A'             
     e(  7 -  7) =     22.90208  eV     1   --> A''            
     e(  8 -  8) =     22.98214  eV     1   --> A'             

 **************************************************************************

 **************************************************************************

                    xk=(  -1.00000,   0.05000,   0.05000  )

     Band symmetry, C_s (m)     point group:

     e(  1 -  1) =     -1.03119  eV     1   --> A'             
     e(  2 -  2) =      1.56628  eV     1   --> A'             
     e(  3 -  3) =      5.92768  eV     1   --> A'             
     e(  4 -  4) =      6.15805  eV     1   --> A''            
     e(  5 -  5) =     10.83090  eV     1   --> A'             
     e(  6 -  6) =     13.73294  eV     1   --> A'             
     e(  7 -  7) =     23.04087  eV     1   --> A''            
     e(  8 -  8) =     23.07726  eV     1   --> A'             

 **************************************************************************

 **************************************************************************

                    xk=(  -1.00000,   0.02500,   0.02500  )

     Band symmetry, C_s (m)     point group:

     e(  1 -  1) =     -1.03849  eV     1   --> A'             
     e(  2 -  2) =      1.54705  eV     1   --> A'             
     e(  3 -  3) =      6.07991  eV     1   --> A'             
     e(  4 -  4) =      6.13965  eV     1   --> A''            
     e(  5 -  5) =     10.71380  eV     1   --> A'             
     e(  6 -  6) =     13.61662  eV     1   --> A'             
     e(  7 -  7) =     23.12665  eV     1   --> A''            
     e(  8 -  8) =     23.13612  eV     1   --> A'             

 **************************************************************************

 **************************************************************************

                    xk=(  -1.00000,   0.00000,   0.00000  )

     point group D_2d (-42m)
     there are  5 classes
     the character table:

       E     2S4   C2    2C2'  2s_d 
A_1    1.00  1.00  1.00  1.00  1.00
A_2    1.00  1.00  1.00 -1.00 -1.00
B_1    1.00 -1.00  1.00  1.00 -1.00
B_2    1.00 -1.00  1.00 -1.00  1.00
E      2.00  0.00 -2.00  0.00  0.00

     the symmetry operations in each class and the name of the first element:

     E        1
                                                                 
     2S4      7    8
                                                                 
     C2       4
                                                                 
     2C2'     2    3
                                                                 
     2s_d     5    6
                                                                 

     Band symmetry, D_2d (-42m) point group:

     e(  1 -  1) =     -1.04103  eV     1   --> A_1  X_1  W_1  
     e(  2 -  2) =      1.54059  eV     1   --> B_2  X_3  W_2  
     e(  3 -  4) =      6.13350  eV     2   --> E    X_5  W_3  
     e(  5 -  5) =     10.67158  eV     1   --> A_1  X_1  W_1  
     e(  6 -  6) =     13.57810  eV     1   --> B_2  X_3  W_2  
     e(  7 -  8) =     23.15565  eV     2   --> E    X_5  W_3  

 **************************************************************************

     BANDS        :     17.42s CPU     17.98s WALL


   This run was terminated on:  12:34:50  24May2020            

=------------------------------------------------------------------------------=
   JOB DONE.
=------------------------------------------------------------------------------=
