
     Program PWSCF v.6.5 starts on 24May2020 at 12:33:45 

     This program is part of the open-source Quantum ESPRESSO suite
     for quantum simulation of materials; please cite
         "P. Giannozzi et al., J. Phys.:Condens. Matter 21 395502 (2009);
         "P. Giannozzi et al., J. Phys.:Condens. Matter 29 465901 (2017);
          URL http://www.quantum-espresso.org", 
     in publications or presentations arising from this work. More details at
     http://www.quantum-espresso.org/quote

     Serial version
     Waiting for input...
     Reading input from standard input

     Current dimensions of program PWSCF are:
     Max number of different atomic species (ntypx) = 10
     Max number of k-points (npk) =  40000
     Max angular momentum in pseudopotentials (lmaxx) =  3

     Atomic positions and unit cell read from directory:
     ./tmp/SiC.save/                                                                                                                                                                                                                                                 


     G-vector sticks info
     --------------------
     sticks:   dense  smooth     PW     G-vecs:    dense   smooth      PW
     Sum         745     379    121                13635     4909     893



     bravais-lattice index     =            2
     lattice parameter (alat)  =       8.2731  a.u.
     unit-cell volume          =     141.5599 (a.u.)^3
     number of atoms/cell      =            2
     number of atomic types    =            2
     number of electrons       =         8.00
     number of Kohn-Sham states=            8
     kinetic-energy cutoff     =      40.0000  Ry
     charge density cutoff     =     320.0000  Ry
     Exchange-correlation= PBE
                           (   1   4   3   4   0   0   0)

     celldm(1)=   8.273070  celldm(2)=   0.000000  celldm(3)=   0.000000
     celldm(4)=   0.000000  celldm(5)=   0.000000  celldm(6)=   0.000000

     crystal axes: (cart. coord. in units of alat)
               a(1) = (  -0.500000   0.000000   0.500000 )  
               a(2) = (   0.000000   0.500000   0.500000 )  
               a(3) = (  -0.500000   0.500000   0.000000 )  

     reciprocal axes: (cart. coord. in units 2 pi/alat)
               b(1) = ( -1.000000 -1.000000  1.000000 )  
               b(2) = (  1.000000  1.000000  1.000000 )  
               b(3) = ( -1.000000  1.000000 -1.000000 )  


     PseudoPot. # 1 for C  read from file:
     ../../pseudopotentials/C.pbe-n-rrkjus_psl.1.0.0.UPF
     MD5 check sum: 1fdd950c42eb37d8afe3dd2f8d12311e
     Pseudo is Ultrasoft + core correction, Zval =  4.0
     Generated using "atomic" code by A. Dal Corso v.6.3MaX
     Using radial grid of 1073 points,  4 beta functions with: 
                l(1) =   0
                l(2) =   0
                l(3) =   1
                l(4) =   1
     Q(r) pseudized with 0 coefficients 


     PseudoPot. # 2 for Si read from file:
     ../../pseudopotentials/Si.pbe-nl-rrkjus_psl.1.0.0.UPF
     MD5 check sum: 78279d3766ecb5dbdc0623f3e93c9a23
     Pseudo is Ultrasoft + core correction, Zval =  4.0
     Generated using "atomic" code by A. Dal Corso v.6.3
     Using radial grid of 1141 points,  4 beta functions with: 
                l(1) =   0
                l(2) =   0
                l(3) =   1
                l(4) =   1
     Q(r) pseudized with 0 coefficients 


     atomic species   valence    mass     pseudopotential
        C              4.00    12.01100     C ( 1.00)
        Si             4.00    28.09000     Si( 1.00)

     24 Sym. Ops. (no inversion) found


                                    s                        frac. trans.

      isym =  1     identity                                     

 cryst.   s( 1) = (     1          0          0      )
                  (     0          1          0      )
                  (     0          0          1      )

 cart.    s( 1) = (  1.0000000  0.0000000  0.0000000 )
                  (  0.0000000  1.0000000  0.0000000 )
                  (  0.0000000  0.0000000  1.0000000 )


      isym =  2     180 deg rotation - cart. axis [0,0,1]        

 cryst.   s( 2) = (     0          1         -1      )
                  (     1          0         -1      )
                  (     0          0         -1      )

 cart.    s( 2) = ( -1.0000000  0.0000000  0.0000000 )
                  (  0.0000000 -1.0000000  0.0000000 )
                  (  0.0000000  0.0000000  1.0000000 )


      isym =  3     180 deg rotation - cart. axis [0,1,0]        

 cryst.   s( 3) = (    -1          0          0      )
                  (    -1          0          1      )
                  (    -1          1          0      )

 cart.    s( 3) = ( -1.0000000  0.0000000  0.0000000 )
                  (  0.0000000  1.0000000  0.0000000 )
                  (  0.0000000  0.0000000 -1.0000000 )


      isym =  4     180 deg rotation - cart. axis [1,0,0]        

 cryst.   s( 4) = (     0         -1          1      )
                  (     0         -1          0      )
                  (     1         -1          0      )

 cart.    s( 4) = (  1.0000000  0.0000000  0.0000000 )
                  (  0.0000000 -1.0000000  0.0000000 )
                  (  0.0000000  0.0000000 -1.0000000 )


      isym =  5     120 deg rotation - cart. axis [-1,-1,-1]     

 cryst.   s( 5) = (    -1          0          1      )
                  (    -1          1          0      )
                  (    -1          0          0      )

 cart.    s( 5) = (  0.0000000  1.0000000  0.0000000 )
                  (  0.0000000  0.0000000  1.0000000 )
                  (  1.0000000  0.0000000  0.0000000 )


      isym =  6     120 deg rotation - cart. axis [-1,1,1]       

 cryst.   s( 6) = (     0          1          0      )
                  (     0          0          1      )
                  (     1          0          0      )

 cart.    s( 6) = (  0.0000000 -1.0000000  0.0000000 )
                  (  0.0000000  0.0000000  1.0000000 )
                  ( -1.0000000  0.0000000  0.0000000 )


      isym =  7     120 deg rotation - cart. axis [1,1,-1]       

 cryst.   s( 7) = (     1          0         -1      )
                  (     0          0         -1      )
                  (     0          1         -1      )

 cart.    s( 7) = (  0.0000000  1.0000000  0.0000000 )
                  (  0.0000000  0.0000000 -1.0000000 )
                  ( -1.0000000  0.0000000  0.0000000 )


      isym =  8     120 deg rotation - cart. axis [1,-1,1]       

 cryst.   s( 8) = (     0         -1          0      )
                  (     1         -1          0      )
                  (     0         -1          1      )

 cart.    s( 8) = (  0.0000000 -1.0000000  0.0000000 )
                  (  0.0000000  0.0000000 -1.0000000 )
                  (  1.0000000  0.0000000  0.0000000 )


      isym =  9     120 deg rotation - cart. axis [1,1,1]        

 cryst.   s( 9) = (     0          0         -1      )
                  (     0          1         -1      )
                  (     1          0         -1      )

 cart.    s( 9) = (  0.0000000  0.0000000  1.0000000 )
                  (  1.0000000  0.0000000  0.0000000 )
                  (  0.0000000  1.0000000  0.0000000 )


      isym = 10     120 deg rotation - cart. axis [-1,1,-1]      

 cryst.   s(10) = (    -1          1          0      )
                  (    -1          0          0      )
                  (    -1          0          1      )

 cart.    s(10) = (  0.0000000  0.0000000  1.0000000 )
                  ( -1.0000000  0.0000000  0.0000000 )
                  (  0.0000000 -1.0000000  0.0000000 )


      isym = 11     120 deg rotation - cart. axis [1,-1,-1]      

 cryst.   s(11) = (     0          0          1      )
                  (     1          0          0      )
                  (     0          1          0      )

 cart.    s(11) = (  0.0000000  0.0000000 -1.0000000 )
                  ( -1.0000000  0.0000000  0.0000000 )
                  (  0.0000000  1.0000000  0.0000000 )


      isym = 12     120 deg rotation - cart. axis [-1,-1,1]      

 cryst.   s(12) = (     1         -1          0      )
                  (     0         -1          1      )
                  (     0         -1          0      )

 cart.    s(12) = (  0.0000000  0.0000000 -1.0000000 )
                  (  1.0000000  0.0000000  0.0000000 )
                  (  0.0000000 -1.0000000  0.0000000 )


      isym = 13     inv. 180 deg rotation - cart. axis [1,1,0]   

 cryst.   s(13) = (     0          1          0      )
                  (     1          0          0      )
                  (     0          0          1      )

 cart.    s(13) = (  0.0000000 -1.0000000  0.0000000 )
                  ( -1.0000000  0.0000000  0.0000000 )
                  (  0.0000000  0.0000000  1.0000000 )


      isym = 14     inv. 180 deg rotation - cart. axis [1,-1,0]  

 cryst.   s(14) = (     1          0         -1      )
                  (     0          1         -1      )
                  (     0          0         -1      )

 cart.    s(14) = (  0.0000000  1.0000000  0.0000000 )
                  (  1.0000000  0.0000000  0.0000000 )
                  (  0.0000000  0.0000000  1.0000000 )


      isym = 15     inv.  90 deg rotation - cart. axis [0,0,-1]  

 cryst.   s(15) = (     0         -1          0      )
                  (     0         -1          1      )
                  (     1         -1          0      )

 cart.    s(15) = (  0.0000000 -1.0000000  0.0000000 )
                  (  1.0000000  0.0000000  0.0000000 )
                  (  0.0000000  0.0000000 -1.0000000 )


      isym = 16     inv.  90 deg rotation - cart. axis [0,0,1]   

 cryst.   s(16) = (    -1          0          1      )
                  (    -1          0          0      )
                  (    -1          1          0      )

 cart.    s(16) = (  0.0000000  1.0000000  0.0000000 )
                  ( -1.0000000  0.0000000  0.0000000 )
                  (  0.0000000  0.0000000 -1.0000000 )


      isym = 17     inv. 180 deg rotation - cart. axis [1,0,1]   

 cryst.   s(17) = (     1          0          0      )
                  (     0          0          1      )
                  (     0          1          0      )

 cart.    s(17) = (  0.0000000  0.0000000 -1.0000000 )
                  (  0.0000000  1.0000000  0.0000000 )
                  ( -1.0000000  0.0000000  0.0000000 )


      isym = 18     inv. 180 deg rotation - cart. axis [-1,0,1]  

 cryst.   s(18) = (    -1          0          0      )
                  (    -1          1          0      )
                  (    -1          0          1      )

 cart.    s(18) = (  0.0000000  0.0000000  1.0000000 )
                  (  0.0000000  1.0000000  0.0000000 )
                  (  1.0000000  0.0000000  0.0000000 )


      isym = 19     inv.  90 deg rotation - cart. axis [0,1,0]   

 cryst.   s(19) = (     0         -1          1      )
                  (     1         -1          0      )
                  (     0         -1          0      )

 cart.    s(19) = (  0.0000000  0.0000000 -1.0000000 )
                  (  0.0000000 -1.0000000  0.0000000 )
                  (  1.0000000  0.0000000  0.0000000 )


      isym = 20     inv.  90 deg rotation - cart. axis [0,-1,0]  

 cryst.   s(20) = (     0          1         -1      )
                  (     0          0         -1      )
                  (     1          0         -1      )

 cart.    s(20) = (  0.0000000  0.0000000  1.0000000 )
                  (  0.0000000 -1.0000000  0.0000000 )
                  ( -1.0000000  0.0000000  0.0000000 )


      isym = 21     inv. 180 deg rotation - cart. axis [0,1,1]   

 cryst.   s(21) = (     1         -1          0      )
                  (     0         -1          0      )
                  (     0         -1          1      )

 cart.    s(21) = (  1.0000000  0.0000000  0.0000000 )
                  (  0.0000000  0.0000000 -1.0000000 )
                  (  0.0000000 -1.0000000  0.0000000 )


      isym = 22     inv. 180 deg rotation - cart. axis [0,1,-1]  

 cryst.   s(22) = (     0          0          1      )
                  (     0          1          0      )
                  (     1          0          0      )

 cart.    s(22) = (  1.0000000  0.0000000  0.0000000 )
                  (  0.0000000  0.0000000  1.0000000 )
                  (  0.0000000  1.0000000  0.0000000 )


      isym = 23     inv.  90 deg rotation - cart. axis [-1,0,0]  

 cryst.   s(23) = (     0          0         -1      )
                  (     1          0         -1      )
                  (     0          1         -1      )

 cart.    s(23) = ( -1.0000000  0.0000000  0.0000000 )
                  (  0.0000000  0.0000000 -1.0000000 )
                  (  0.0000000  1.0000000  0.0000000 )


      isym = 24     inv.  90 deg rotation - cart. axis [1,0,0]   

 cryst.   s(24) = (    -1          1          0      )
                  (    -1          0          1      )
                  (    -1          0          0      )

 cart.    s(24) = ( -1.0000000  0.0000000  0.0000000 )
                  (  0.0000000  0.0000000  1.0000000 )
                  (  0.0000000 -1.0000000  0.0000000 )


     point group T_d (-43m) 
     there are  5 classes
     the character table:

       E     8C3   3C2   6S4   6s_d 
A_1    1.00  1.00  1.00  1.00  1.00
A_2    1.00  1.00  1.00 -1.00 -1.00
E      2.00 -1.00  2.00  0.00  0.00
T_1    3.00  0.00 -1.00  1.00 -1.00
T_2    3.00  0.00 -1.00 -1.00  1.00

     the symmetry operations in each class and the name of the first element:

     E        1
          identity                                               
     8C3      5    7    8    6   12    9   10   11
          120 deg rotation - cart. axis [-1,-1,-1]               
     3C2      2    3    4
          180 deg rotation - cart. axis [0,0,1]                  
     6S4     15   16   20   19   23   24
          inv.  90 deg rotation - cart. axis [0,0,-1]            
     6s_d    13   14   17   18   21   22
          inv. 180 deg rotation - cart. axis [1,1,0]             

   Cartesian axes

     site n.     atom                  positions (alat units)
         1           C   tau(   1) = (   0.0000000   0.0000000   0.0000000  )
         2           Si  tau(   2) = (  -0.2500000   0.2500000   0.2500000  )

   Crystallographic axes

     site n.     atom                  positions (cryst. coord.)
         1           C   tau(   1) = (  0.0000000  0.0000000  0.0000000  )
         2           Si  tau(   2) = (  0.2500000  0.2500000  0.2500000  )

     number of k points=   361
                       cart. coord. in units 2pi/alat
        k(    1) = (   0.0000000   0.0000000   0.0000000), wk =   0.0055402
        k(    2) = (  -0.0100000   0.0000000   0.0000000), wk =   0.0055402
        k(    3) = (  -0.0200000   0.0000000   0.0000000), wk =   0.0055402
        k(    4) = (  -0.0300000   0.0000000   0.0000000), wk =   0.0055402
        k(    5) = (  -0.0400000   0.0000000   0.0000000), wk =   0.0055402
        k(    6) = (  -0.0500000   0.0000000   0.0000000), wk =   0.0055402
        k(    7) = (  -0.0600000   0.0000000   0.0000000), wk =   0.0055402
        k(    8) = (  -0.0700000   0.0000000   0.0000000), wk =   0.0055402
        k(    9) = (  -0.0800000   0.0000000   0.0000000), wk =   0.0055402
        k(   10) = (  -0.0900000   0.0000000   0.0000000), wk =   0.0055402
        k(   11) = (  -0.1000000   0.0000000   0.0000000), wk =   0.0055402
        k(   12) = (  -0.1100000   0.0000000   0.0000000), wk =   0.0055402
        k(   13) = (  -0.1200000   0.0000000   0.0000000), wk =   0.0055402
        k(   14) = (  -0.1300000   0.0000000   0.0000000), wk =   0.0055402
        k(   15) = (  -0.1400000   0.0000000   0.0000000), wk =   0.0055402
        k(   16) = (  -0.1500000   0.0000000   0.0000000), wk =   0.0055402
        k(   17) = (  -0.1600000   0.0000000   0.0000000), wk =   0.0055402
        k(   18) = (  -0.1700000   0.0000000   0.0000000), wk =   0.0055402
        k(   19) = (  -0.1800000   0.0000000   0.0000000), wk =   0.0055402
        k(   20) = (  -0.1900000   0.0000000   0.0000000), wk =   0.0055402
        k(   21) = (  -0.2000000   0.0000000   0.0000000), wk =   0.0055402
        k(   22) = (  -0.2100000   0.0000000   0.0000000), wk =   0.0055402
        k(   23) = (  -0.2200000   0.0000000   0.0000000), wk =   0.0055402
        k(   24) = (  -0.2300000   0.0000000   0.0000000), wk =   0.0055402
        k(   25) = (  -0.2400000   0.0000000   0.0000000), wk =   0.0055402
        k(   26) = (  -0.2500000   0.0000000   0.0000000), wk =   0.0055402
        k(   27) = (  -0.2600000   0.0000000   0.0000000), wk =   0.0055402
        k(   28) = (  -0.2700000   0.0000000   0.0000000), wk =   0.0055402
        k(   29) = (  -0.2800000   0.0000000   0.0000000), wk =   0.0055402
        k(   30) = (  -0.2900000   0.0000000   0.0000000), wk =   0.0055402
        k(   31) = (  -0.3000000   0.0000000   0.0000000), wk =   0.0055402
        k(   32) = (  -0.3100000   0.0000000   0.0000000), wk =   0.0055402
        k(   33) = (  -0.3200000   0.0000000   0.0000000), wk =   0.0055402
        k(   34) = (  -0.3300000   0.0000000   0.0000000), wk =   0.0055402
        k(   35) = (  -0.3400000   0.0000000   0.0000000), wk =   0.0055402
        k(   36) = (  -0.3500000   0.0000000   0.0000000), wk =   0.0055402
        k(   37) = (  -0.3600000   0.0000000   0.0000000), wk =   0.0055402
        k(   38) = (  -0.3700000   0.0000000   0.0000000), wk =   0.0055402
        k(   39) = (  -0.3800000   0.0000000   0.0000000), wk =   0.0055402
        k(   40) = (  -0.3900000   0.0000000   0.0000000), wk =   0.0055402
        k(   41) = (  -0.4000000   0.0000000   0.0000000), wk =   0.0055402
        k(   42) = (  -0.4100000   0.0000000   0.0000000), wk =   0.0055402
        k(   43) = (  -0.4200000   0.0000000   0.0000000), wk =   0.0055402
        k(   44) = (  -0.4300000   0.0000000   0.0000000), wk =   0.0055402
        k(   45) = (  -0.4400000   0.0000000   0.0000000), wk =   0.0055402
        k(   46) = (  -0.4500000   0.0000000   0.0000000), wk =   0.0055402
        k(   47) = (  -0.4600000   0.0000000   0.0000000), wk =   0.0055402
        k(   48) = (  -0.4700000   0.0000000   0.0000000), wk =   0.0055402
        k(   49) = (  -0.4800000   0.0000000   0.0000000), wk =   0.0055402
        k(   50) = (  -0.4900000   0.0000000   0.0000000), wk =   0.0055402
        k(   51) = (  -0.5000000   0.0000000   0.0000000), wk =   0.0055402
        k(   52) = (  -0.5100000   0.0000000   0.0000000), wk =   0.0055402
        k(   53) = (  -0.5200000   0.0000000   0.0000000), wk =   0.0055402
        k(   54) = (  -0.5300000   0.0000000   0.0000000), wk =   0.0055402
        k(   55) = (  -0.5400000   0.0000000   0.0000000), wk =   0.0055402
        k(   56) = (  -0.5500000   0.0000000   0.0000000), wk =   0.0055402
        k(   57) = (  -0.5600000   0.0000000   0.0000000), wk =   0.0055402
        k(   58) = (  -0.5700000   0.0000000   0.0000000), wk =   0.0055402
        k(   59) = (  -0.5800000   0.0000000   0.0000000), wk =   0.0055402
        k(   60) = (  -0.5900000   0.0000000   0.0000000), wk =   0.0055402
        k(   61) = (  -0.6000000   0.0000000   0.0000000), wk =   0.0055402
        k(   62) = (  -0.6100000   0.0000000   0.0000000), wk =   0.0055402
        k(   63) = (  -0.6200000   0.0000000   0.0000000), wk =   0.0055402
        k(   64) = (  -0.6300000   0.0000000   0.0000000), wk =   0.0055402
        k(   65) = (  -0.6400000   0.0000000   0.0000000), wk =   0.0055402
        k(   66) = (  -0.6500000   0.0000000   0.0000000), wk =   0.0055402
        k(   67) = (  -0.6600000   0.0000000   0.0000000), wk =   0.0055402
        k(   68) = (  -0.6700000   0.0000000   0.0000000), wk =   0.0055402
        k(   69) = (  -0.6800000   0.0000000   0.0000000), wk =   0.0055402
        k(   70) = (  -0.6900000   0.0000000   0.0000000), wk =   0.0055402
        k(   71) = (  -0.7000000   0.0000000   0.0000000), wk =   0.0055402
        k(   72) = (  -0.7100000   0.0000000   0.0000000), wk =   0.0055402
        k(   73) = (  -0.7200000   0.0000000   0.0000000), wk =   0.0055402
        k(   74) = (  -0.7300000   0.0000000   0.0000000), wk =   0.0055402
        k(   75) = (  -0.7400000   0.0000000   0.0000000), wk =   0.0055402
        k(   76) = (  -0.7500000   0.0000000   0.0000000), wk =   0.0055402
        k(   77) = (  -0.7600000   0.0000000   0.0000000), wk =   0.0055402
        k(   78) = (  -0.7700000   0.0000000   0.0000000), wk =   0.0055402
        k(   79) = (  -0.7800000   0.0000000   0.0000000), wk =   0.0055402
        k(   80) = (  -0.7900000   0.0000000   0.0000000), wk =   0.0055402
        k(   81) = (  -0.8000000   0.0000000   0.0000000), wk =   0.0055402
        k(   82) = (  -0.8100000   0.0000000   0.0000000), wk =   0.0055402
        k(   83) = (  -0.8200000   0.0000000   0.0000000), wk =   0.0055402
        k(   84) = (  -0.8300000   0.0000000   0.0000000), wk =   0.0055402
        k(   85) = (  -0.8400000   0.0000000   0.0000000), wk =   0.0055402
        k(   86) = (  -0.8500000   0.0000000   0.0000000), wk =   0.0055402
        k(   87) = (  -0.8600000   0.0000000   0.0000000), wk =   0.0055402
        k(   88) = (  -0.8700000   0.0000000   0.0000000), wk =   0.0055402
        k(   89) = (  -0.8800000   0.0000000   0.0000000), wk =   0.0055402
        k(   90) = (  -0.8900000   0.0000000   0.0000000), wk =   0.0055402
        k(   91) = (  -0.9000000   0.0000000   0.0000000), wk =   0.0055402
        k(   92) = (  -0.9100000   0.0000000   0.0000000), wk =   0.0055402
        k(   93) = (  -0.9200000   0.0000000   0.0000000), wk =   0.0055402
        k(   94) = (  -0.9300000   0.0000000   0.0000000), wk =   0.0055402
        k(   95) = (  -0.9400000   0.0000000   0.0000000), wk =   0.0055402
        k(   96) = (  -0.9500000   0.0000000   0.0000000), wk =   0.0055402
        k(   97) = (  -0.9600000   0.0000000   0.0000000), wk =   0.0055402
        k(   98) = (  -0.9700000   0.0000000   0.0000000), wk =   0.0055402
        k(   99) = (  -0.9800000   0.0000000   0.0000000), wk =   0.0055402
        k(  100) = (  -0.9900000   0.0000000   0.0000000), wk =   0.0055402
        k(  101) = (  -1.0000000   0.0000000   0.0000000), wk =   0.0055402
        k(  102) = (  -1.0000000   0.0000000   0.0166667), wk =   0.0055402
        k(  103) = (  -1.0000000   0.0000000   0.0333333), wk =   0.0055402
        k(  104) = (  -1.0000000   0.0000000   0.0500000), wk =   0.0055402
        k(  105) = (  -1.0000000   0.0000000   0.0666667), wk =   0.0055402
        k(  106) = (  -1.0000000   0.0000000   0.0833333), wk =   0.0055402
        k(  107) = (  -1.0000000   0.0000000   0.1000000), wk =   0.0055402
        k(  108) = (  -1.0000000   0.0000000   0.1166667), wk =   0.0055402
        k(  109) = (  -1.0000000   0.0000000   0.1333333), wk =   0.0055402
        k(  110) = (  -1.0000000   0.0000000   0.1500000), wk =   0.0055402
        k(  111) = (  -1.0000000   0.0000000   0.1666667), wk =   0.0055402
        k(  112) = (  -1.0000000   0.0000000   0.1833333), wk =   0.0055402
        k(  113) = (  -1.0000000   0.0000000   0.2000000), wk =   0.0055402
        k(  114) = (  -1.0000000   0.0000000   0.2166667), wk =   0.0055402
        k(  115) = (  -1.0000000   0.0000000   0.2333333), wk =   0.0055402
        k(  116) = (  -1.0000000   0.0000000   0.2500000), wk =   0.0055402
        k(  117) = (  -1.0000000   0.0000000   0.2666667), wk =   0.0055402
        k(  118) = (  -1.0000000   0.0000000   0.2833333), wk =   0.0055402
        k(  119) = (  -1.0000000   0.0000000   0.3000000), wk =   0.0055402
        k(  120) = (  -1.0000000   0.0000000   0.3166667), wk =   0.0055402
        k(  121) = (  -1.0000000   0.0000000   0.3333333), wk =   0.0055402
        k(  122) = (  -1.0000000   0.0000000   0.3500000), wk =   0.0055402
        k(  123) = (  -1.0000000   0.0000000   0.3666667), wk =   0.0055402
        k(  124) = (  -1.0000000   0.0000000   0.3833333), wk =   0.0055402
        k(  125) = (  -1.0000000   0.0000000   0.4000000), wk =   0.0055402
        k(  126) = (  -1.0000000   0.0000000   0.4166667), wk =   0.0055402
        k(  127) = (  -1.0000000   0.0000000   0.4333333), wk =   0.0055402
        k(  128) = (  -1.0000000   0.0000000   0.4500000), wk =   0.0055402
        k(  129) = (  -1.0000000   0.0000000   0.4666667), wk =   0.0055402
        k(  130) = (  -1.0000000   0.0000000   0.4833333), wk =   0.0055402
        k(  131) = (  -1.0000000   0.0000000   0.5000000), wk =   0.0055402
        k(  132) = (  -0.9900000   0.0100000   0.5000000), wk =   0.0055402
        k(  133) = (  -0.9800000   0.0200000   0.5000000), wk =   0.0055402
        k(  134) = (  -0.9700000   0.0300000   0.5000000), wk =   0.0055402
        k(  135) = (  -0.9600000   0.0400000   0.5000000), wk =   0.0055402
        k(  136) = (  -0.9500000   0.0500000   0.5000000), wk =   0.0055402
        k(  137) = (  -0.9400000   0.0600000   0.5000000), wk =   0.0055402
        k(  138) = (  -0.9300000   0.0700000   0.5000000), wk =   0.0055402
        k(  139) = (  -0.9200000   0.0800000   0.5000000), wk =   0.0055402
        k(  140) = (  -0.9100000   0.0900000   0.5000000), wk =   0.0055402
        k(  141) = (  -0.9000000   0.1000000   0.5000000), wk =   0.0055402
        k(  142) = (  -0.8900000   0.1100000   0.5000000), wk =   0.0055402
        k(  143) = (  -0.8800000   0.1200000   0.5000000), wk =   0.0055402
        k(  144) = (  -0.8700000   0.1300000   0.5000000), wk =   0.0055402
        k(  145) = (  -0.8600000   0.1400000   0.5000000), wk =   0.0055402
        k(  146) = (  -0.8500000   0.1500000   0.5000000), wk =   0.0055402
        k(  147) = (  -0.8400000   0.1600000   0.5000000), wk =   0.0055402
        k(  148) = (  -0.8300000   0.1700000   0.5000000), wk =   0.0055402
        k(  149) = (  -0.8200000   0.1800000   0.5000000), wk =   0.0055402
        k(  150) = (  -0.8100000   0.1900000   0.5000000), wk =   0.0055402
        k(  151) = (  -0.8000000   0.2000000   0.5000000), wk =   0.0055402
        k(  152) = (  -0.7900000   0.2100000   0.5000000), wk =   0.0055402
        k(  153) = (  -0.7800000   0.2200000   0.5000000), wk =   0.0055402
        k(  154) = (  -0.7700000   0.2300000   0.5000000), wk =   0.0055402
        k(  155) = (  -0.7600000   0.2400000   0.5000000), wk =   0.0055402
        k(  156) = (  -0.7500000   0.2500000   0.5000000), wk =   0.0055402
        k(  157) = (  -0.7400000   0.2600000   0.5000000), wk =   0.0055402
        k(  158) = (  -0.7300000   0.2700000   0.5000000), wk =   0.0055402
        k(  159) = (  -0.7200000   0.2800000   0.5000000), wk =   0.0055402
        k(  160) = (  -0.7100000   0.2900000   0.5000000), wk =   0.0055402
        k(  161) = (  -0.7000000   0.3000000   0.5000000), wk =   0.0055402
        k(  162) = (  -0.6900000   0.3100000   0.5000000), wk =   0.0055402
        k(  163) = (  -0.6800000   0.3200000   0.5000000), wk =   0.0055402
        k(  164) = (  -0.6700000   0.3300000   0.5000000), wk =   0.0055402
        k(  165) = (  -0.6600000   0.3400000   0.5000000), wk =   0.0055402
        k(  166) = (  -0.6500000   0.3500000   0.5000000), wk =   0.0055402
        k(  167) = (  -0.6400000   0.3600000   0.5000000), wk =   0.0055402
        k(  168) = (  -0.6300000   0.3700000   0.5000000), wk =   0.0055402
        k(  169) = (  -0.6200000   0.3800000   0.5000000), wk =   0.0055402
        k(  170) = (  -0.6100000   0.3900000   0.5000000), wk =   0.0055402
        k(  171) = (  -0.6000000   0.4000000   0.5000000), wk =   0.0055402
        k(  172) = (  -0.5900000   0.4100000   0.5000000), wk =   0.0055402
        k(  173) = (  -0.5800000   0.4200000   0.5000000), wk =   0.0055402
        k(  174) = (  -0.5700000   0.4300000   0.5000000), wk =   0.0055402
        k(  175) = (  -0.5600000   0.4400000   0.5000000), wk =   0.0055402
        k(  176) = (  -0.5500000   0.4500000   0.5000000), wk =   0.0055402
        k(  177) = (  -0.5400000   0.4600000   0.5000000), wk =   0.0055402
        k(  178) = (  -0.5300000   0.4700000   0.5000000), wk =   0.0055402
        k(  179) = (  -0.5200000   0.4800000   0.5000000), wk =   0.0055402
        k(  180) = (  -0.5100000   0.4900000   0.5000000), wk =   0.0055402
        k(  181) = (  -0.5000000   0.5000000   0.5000000), wk =   0.0055402
        k(  182) = (  -0.4928571   0.4928571   0.4928571), wk =   0.0055402
        k(  183) = (  -0.4857143   0.4857143   0.4857143), wk =   0.0055402
        k(  184) = (  -0.4785714   0.4785714   0.4785714), wk =   0.0055402
        k(  185) = (  -0.4714286   0.4714286   0.4714286), wk =   0.0055402
        k(  186) = (  -0.4642857   0.4642857   0.4642857), wk =   0.0055402
        k(  187) = (  -0.4571429   0.4571429   0.4571429), wk =   0.0055402
        k(  188) = (  -0.4500000   0.4500000   0.4500000), wk =   0.0055402
        k(  189) = (  -0.4428571   0.4428571   0.4428571), wk =   0.0055402
        k(  190) = (  -0.4357143   0.4357143   0.4357143), wk =   0.0055402
        k(  191) = (  -0.4285714   0.4285714   0.4285714), wk =   0.0055402
        k(  192) = (  -0.4214286   0.4214286   0.4214286), wk =   0.0055402
        k(  193) = (  -0.4142857   0.4142857   0.4142857), wk =   0.0055402
        k(  194) = (  -0.4071429   0.4071429   0.4071429), wk =   0.0055402
        k(  195) = (  -0.4000000   0.4000000   0.4000000), wk =   0.0055402
        k(  196) = (  -0.3928571   0.3928571   0.3928571), wk =   0.0055402
        k(  197) = (  -0.3857143   0.3857143   0.3857143), wk =   0.0055402
        k(  198) = (  -0.3785714   0.3785714   0.3785714), wk =   0.0055402
        k(  199) = (  -0.3714286   0.3714286   0.3714286), wk =   0.0055402
        k(  200) = (  -0.3642857   0.3642857   0.3642857), wk =   0.0055402
        k(  201) = (  -0.3571429   0.3571429   0.3571429), wk =   0.0055402
        k(  202) = (  -0.3500000   0.3500000   0.3500000), wk =   0.0055402
        k(  203) = (  -0.3428571   0.3428571   0.3428571), wk =   0.0055402
        k(  204) = (  -0.3357143   0.3357143   0.3357143), wk =   0.0055402
        k(  205) = (  -0.3285714   0.3285714   0.3285714), wk =   0.0055402
        k(  206) = (  -0.3214286   0.3214286   0.3214286), wk =   0.0055402
        k(  207) = (  -0.3142857   0.3142857   0.3142857), wk =   0.0055402
        k(  208) = (  -0.3071429   0.3071429   0.3071429), wk =   0.0055402
        k(  209) = (  -0.3000000   0.3000000   0.3000000), wk =   0.0055402
        k(  210) = (  -0.2928571   0.2928571   0.2928571), wk =   0.0055402
        k(  211) = (  -0.2857143   0.2857143   0.2857143), wk =   0.0055402
        k(  212) = (  -0.2785714   0.2785714   0.2785714), wk =   0.0055402
        k(  213) = (  -0.2714286   0.2714286   0.2714286), wk =   0.0055402
        k(  214) = (  -0.2642857   0.2642857   0.2642857), wk =   0.0055402
        k(  215) = (  -0.2571429   0.2571429   0.2571429), wk =   0.0055402
        k(  216) = (  -0.2500000   0.2500000   0.2500000), wk =   0.0055402
        k(  217) = (  -0.2428571   0.2428571   0.2428571), wk =   0.0055402
        k(  218) = (  -0.2357143   0.2357143   0.2357143), wk =   0.0055402
        k(  219) = (  -0.2285714   0.2285714   0.2285714), wk =   0.0055402
        k(  220) = (  -0.2214286   0.2214286   0.2214286), wk =   0.0055402
        k(  221) = (  -0.2142857   0.2142857   0.2142857), wk =   0.0055402
        k(  222) = (  -0.2071429   0.2071429   0.2071429), wk =   0.0055402
        k(  223) = (  -0.2000000   0.2000000   0.2000000), wk =   0.0055402
        k(  224) = (  -0.1928571   0.1928571   0.1928571), wk =   0.0055402
        k(  225) = (  -0.1857143   0.1857143   0.1857143), wk =   0.0055402
        k(  226) = (  -0.1785714   0.1785714   0.1785714), wk =   0.0055402
        k(  227) = (  -0.1714286   0.1714286   0.1714286), wk =   0.0055402
        k(  228) = (  -0.1642857   0.1642857   0.1642857), wk =   0.0055402
        k(  229) = (  -0.1571429   0.1571429   0.1571429), wk =   0.0055402
        k(  230) = (  -0.1500000   0.1500000   0.1500000), wk =   0.0055402
        k(  231) = (  -0.1428571   0.1428571   0.1428571), wk =   0.0055402
        k(  232) = (  -0.1357143   0.1357143   0.1357143), wk =   0.0055402
        k(  233) = (  -0.1285714   0.1285714   0.1285714), wk =   0.0055402
        k(  234) = (  -0.1214286   0.1214286   0.1214286), wk =   0.0055402
        k(  235) = (  -0.1142857   0.1142857   0.1142857), wk =   0.0055402
        k(  236) = (  -0.1071429   0.1071429   0.1071429), wk =   0.0055402
        k(  237) = (  -0.1000000   0.1000000   0.1000000), wk =   0.0055402
        k(  238) = (  -0.0928571   0.0928571   0.0928571), wk =   0.0055402
        k(  239) = (  -0.0857143   0.0857143   0.0857143), wk =   0.0055402
        k(  240) = (  -0.0785714   0.0785714   0.0785714), wk =   0.0055402
        k(  241) = (  -0.0714286   0.0714286   0.0714286), wk =   0.0055402
        k(  242) = (  -0.0642857   0.0642857   0.0642857), wk =   0.0055402
        k(  243) = (  -0.0571429   0.0571429   0.0571429), wk =   0.0055402
        k(  244) = (  -0.0500000   0.0500000   0.0500000), wk =   0.0055402
        k(  245) = (  -0.0428571   0.0428571   0.0428571), wk =   0.0055402
        k(  246) = (  -0.0357143   0.0357143   0.0357143), wk =   0.0055402
        k(  247) = (  -0.0285714   0.0285714   0.0285714), wk =   0.0055402
        k(  248) = (  -0.0214286   0.0214286   0.0214286), wk =   0.0055402
        k(  249) = (  -0.0142857   0.0142857   0.0142857), wk =   0.0055402
        k(  250) = (  -0.0071429   0.0071429   0.0071429), wk =   0.0055402
        k(  251) = (   0.0000000   0.0000000   0.0000000), wk =   0.0055402
        k(  252) = (  -0.0100000   0.0025000   0.0025000), wk =   0.0055402
        k(  253) = (  -0.0200000   0.0050000   0.0050000), wk =   0.0055402
        k(  254) = (  -0.0300000   0.0075000   0.0075000), wk =   0.0055402
        k(  255) = (  -0.0400000   0.0100000   0.0100000), wk =   0.0055402
        k(  256) = (  -0.0500000   0.0125000   0.0125000), wk =   0.0055402
        k(  257) = (  -0.0600000   0.0150000   0.0150000), wk =   0.0055402
        k(  258) = (  -0.0700000   0.0175000   0.0175000), wk =   0.0055402
        k(  259) = (  -0.0800000   0.0200000   0.0200000), wk =   0.0055402
        k(  260) = (  -0.0900000   0.0225000   0.0225000), wk =   0.0055402
        k(  261) = (  -0.1000000   0.0250000   0.0250000), wk =   0.0055402
        k(  262) = (  -0.1100000   0.0275000   0.0275000), wk =   0.0055402
        k(  263) = (  -0.1200000   0.0300000   0.0300000), wk =   0.0055402
        k(  264) = (  -0.1300000   0.0325000   0.0325000), wk =   0.0055402
        k(  265) = (  -0.1400000   0.0350000   0.0350000), wk =   0.0055402
        k(  266) = (  -0.1500000   0.0375000   0.0375000), wk =   0.0055402
        k(  267) = (  -0.1600000   0.0400000   0.0400000), wk =   0.0055402
        k(  268) = (  -0.1700000   0.0425000   0.0425000), wk =   0.0055402
        k(  269) = (  -0.1800000   0.0450000   0.0450000), wk =   0.0055402
        k(  270) = (  -0.1900000   0.0475000   0.0475000), wk =   0.0055402
        k(  271) = (  -0.2000000   0.0500000   0.0500000), wk =   0.0055402
        k(  272) = (  -0.2100000   0.0525000   0.0525000), wk =   0.0055402
        k(  273) = (  -0.2200000   0.0550000   0.0550000), wk =   0.0055402
        k(  274) = (  -0.2300000   0.0575000   0.0575000), wk =   0.0055402
        k(  275) = (  -0.2400000   0.0600000   0.0600000), wk =   0.0055402
        k(  276) = (  -0.2500000   0.0625000   0.0625000), wk =   0.0055402
        k(  277) = (  -0.2600000   0.0650000   0.0650000), wk =   0.0055402
        k(  278) = (  -0.2700000   0.0675000   0.0675000), wk =   0.0055402
        k(  279) = (  -0.2800000   0.0700000   0.0700000), wk =   0.0055402
        k(  280) = (  -0.2900000   0.0725000   0.0725000), wk =   0.0055402
        k(  281) = (  -0.3000000   0.0750000   0.0750000), wk =   0.0055402
        k(  282) = (  -0.3100000   0.0775000   0.0775000), wk =   0.0055402
        k(  283) = (  -0.3200000   0.0800000   0.0800000), wk =   0.0055402
        k(  284) = (  -0.3300000   0.0825000   0.0825000), wk =   0.0055402
        k(  285) = (  -0.3400000   0.0850000   0.0850000), wk =   0.0055402
        k(  286) = (  -0.3500000   0.0875000   0.0875000), wk =   0.0055402
        k(  287) = (  -0.3600000   0.0900000   0.0900000), wk =   0.0055402
        k(  288) = (  -0.3700000   0.0925000   0.0925000), wk =   0.0055402
        k(  289) = (  -0.3800000   0.0950000   0.0950000), wk =   0.0055402
        k(  290) = (  -0.3900000   0.0975000   0.0975000), wk =   0.0055402
        k(  291) = (  -0.4000000   0.1000000   0.1000000), wk =   0.0055402
        k(  292) = (  -0.4100000   0.1025000   0.1025000), wk =   0.0055402
        k(  293) = (  -0.4200000   0.1050000   0.1050000), wk =   0.0055402
        k(  294) = (  -0.4300000   0.1075000   0.1075000), wk =   0.0055402
        k(  295) = (  -0.4400000   0.1100000   0.1100000), wk =   0.0055402
        k(  296) = (  -0.4500000   0.1125000   0.1125000), wk =   0.0055402
        k(  297) = (  -0.4600000   0.1150000   0.1150000), wk =   0.0055402
        k(  298) = (  -0.4700000   0.1175000   0.1175000), wk =   0.0055402
        k(  299) = (  -0.4800000   0.1200000   0.1200000), wk =   0.0055402
        k(  300) = (  -0.4900000   0.1225000   0.1225000), wk =   0.0055402
        k(  301) = (  -0.5000000   0.1250000   0.1250000), wk =   0.0055402
        k(  302) = (  -0.5100000   0.1275000   0.1275000), wk =   0.0055402
        k(  303) = (  -0.5200000   0.1300000   0.1300000), wk =   0.0055402
        k(  304) = (  -0.5300000   0.1325000   0.1325000), wk =   0.0055402
        k(  305) = (  -0.5400000   0.1350000   0.1350000), wk =   0.0055402
        k(  306) = (  -0.5500000   0.1375000   0.1375000), wk =   0.0055402
        k(  307) = (  -0.5600000   0.1400000   0.1400000), wk =   0.0055402
        k(  308) = (  -0.5700000   0.1425000   0.1425000), wk =   0.0055402
        k(  309) = (  -0.5800000   0.1450000   0.1450000), wk =   0.0055402
        k(  310) = (  -0.5900000   0.1475000   0.1475000), wk =   0.0055402
        k(  311) = (  -0.6000000   0.1500000   0.1500000), wk =   0.0055402
        k(  312) = (  -0.6100000   0.1525000   0.1525000), wk =   0.0055402
        k(  313) = (  -0.6200000   0.1550000   0.1550000), wk =   0.0055402
        k(  314) = (  -0.6300000   0.1575000   0.1575000), wk =   0.0055402
        k(  315) = (  -0.6400000   0.1600000   0.1600000), wk =   0.0055402
        k(  316) = (  -0.6500000   0.1625000   0.1625000), wk =   0.0055402
        k(  317) = (  -0.6600000   0.1650000   0.1650000), wk =   0.0055402
        k(  318) = (  -0.6700000   0.1675000   0.1675000), wk =   0.0055402
        k(  319) = (  -0.6800000   0.1700000   0.1700000), wk =   0.0055402
        k(  320) = (  -0.6900000   0.1725000   0.1725000), wk =   0.0055402
        k(  321) = (  -0.7000000   0.1750000   0.1750000), wk =   0.0055402
        k(  322) = (  -0.7100000   0.1775000   0.1775000), wk =   0.0055402
        k(  323) = (  -0.7200000   0.1800000   0.1800000), wk =   0.0055402
        k(  324) = (  -0.7300000   0.1825000   0.1825000), wk =   0.0055402
        k(  325) = (  -0.7400000   0.1850000   0.1850000), wk =   0.0055402
        k(  326) = (  -0.7500000   0.1875000   0.1875000), wk =   0.0055402
        k(  327) = (  -0.7600000   0.1900000   0.1900000), wk =   0.0055402
        k(  328) = (  -0.7700000   0.1925000   0.1925000), wk =   0.0055402
        k(  329) = (  -0.7800000   0.1950000   0.1950000), wk =   0.0055402
        k(  330) = (  -0.7900000   0.1975000   0.1975000), wk =   0.0055402
        k(  331) = (  -0.8000000   0.2000000   0.2000000), wk =   0.0055402
        k(  332) = (  -0.8100000   0.2025000   0.2025000), wk =   0.0055402
        k(  333) = (  -0.8200000   0.2050000   0.2050000), wk =   0.0055402
        k(  334) = (  -0.8300000   0.2075000   0.2075000), wk =   0.0055402
        k(  335) = (  -0.8400000   0.2100000   0.2100000), wk =   0.0055402
        k(  336) = (  -0.8500000   0.2125000   0.2125000), wk =   0.0055402
        k(  337) = (  -0.8600000   0.2150000   0.2150000), wk =   0.0055402
        k(  338) = (  -0.8700000   0.2175000   0.2175000), wk =   0.0055402
        k(  339) = (  -0.8800000   0.2200000   0.2200000), wk =   0.0055402
        k(  340) = (  -0.8900000   0.2225000   0.2225000), wk =   0.0055402
        k(  341) = (  -0.9000000   0.2250000   0.2250000), wk =   0.0055402
        k(  342) = (  -0.9100000   0.2275000   0.2275000), wk =   0.0055402
        k(  343) = (  -0.9200000   0.2300000   0.2300000), wk =   0.0055402
        k(  344) = (  -0.9300000   0.2325000   0.2325000), wk =   0.0055402
        k(  345) = (  -0.9400000   0.2350000   0.2350000), wk =   0.0055402
        k(  346) = (  -0.9500000   0.2375000   0.2375000), wk =   0.0055402
        k(  347) = (  -0.9600000   0.2400000   0.2400000), wk =   0.0055402
        k(  348) = (  -0.9700000   0.2425000   0.2425000), wk =   0.0055402
        k(  349) = (  -0.9800000   0.2450000   0.2450000), wk =   0.0055402
        k(  350) = (  -0.9900000   0.2475000   0.2475000), wk =   0.0055402
        k(  351) = (  -1.0000000   0.2500000   0.2500000), wk =   0.0055402
        k(  352) = (  -1.0000000   0.2250000   0.2250000), wk =   0.0055402
        k(  353) = (  -1.0000000   0.2000000   0.2000000), wk =   0.0055402
        k(  354) = (  -1.0000000   0.1750000   0.1750000), wk =   0.0055402
        k(  355) = (  -1.0000000   0.1500000   0.1500000), wk =   0.0055402
        k(  356) = (  -1.0000000   0.1250000   0.1250000), wk =   0.0055402
        k(  357) = (  -1.0000000   0.1000000   0.1000000), wk =   0.0055402
        k(  358) = (  -1.0000000   0.0750000   0.0750000), wk =   0.0055402
        k(  359) = (  -1.0000000   0.0500000   0.0500000), wk =   0.0055402
        k(  360) = (  -1.0000000   0.0250000   0.0250000), wk =   0.0055402
        k(  361) = (  -1.0000000   0.0000000   0.0000000), wk =   0.0055402

                       cryst. coord.
        k(    1) = (   0.0000000   0.0000000   0.0000000), wk =   0.0055402
        k(    2) = (   0.0050000   0.0000000   0.0050000), wk =   0.0055402
        k(    3) = (   0.0100000   0.0000000   0.0100000), wk =   0.0055402
        k(    4) = (   0.0150000   0.0000000   0.0150000), wk =   0.0055402
        k(    5) = (   0.0200000   0.0000000   0.0200000), wk =   0.0055402
        k(    6) = (   0.0250000   0.0000000   0.0250000), wk =   0.0055402
        k(    7) = (   0.0300000   0.0000000   0.0300000), wk =   0.0055402
        k(    8) = (   0.0350000   0.0000000   0.0350000), wk =   0.0055402
        k(    9) = (   0.0400000   0.0000000   0.0400000), wk =   0.0055402
        k(   10) = (   0.0450000   0.0000000   0.0450000), wk =   0.0055402
        k(   11) = (   0.0500000   0.0000000   0.0500000), wk =   0.0055402
        k(   12) = (   0.0550000   0.0000000   0.0550000), wk =   0.0055402
        k(   13) = (   0.0600000   0.0000000   0.0600000), wk =   0.0055402
        k(   14) = (   0.0650000   0.0000000   0.0650000), wk =   0.0055402
        k(   15) = (   0.0700000   0.0000000   0.0700000), wk =   0.0055402
        k(   16) = (   0.0750000   0.0000000   0.0750000), wk =   0.0055402
        k(   17) = (   0.0800000   0.0000000   0.0800000), wk =   0.0055402
        k(   18) = (   0.0850000   0.0000000   0.0850000), wk =   0.0055402
        k(   19) = (   0.0900000   0.0000000   0.0900000), wk =   0.0055402
        k(   20) = (   0.0950000   0.0000000   0.0950000), wk =   0.0055402
        k(   21) = (   0.1000000   0.0000000   0.1000000), wk =   0.0055402
        k(   22) = (   0.1050000   0.0000000   0.1050000), wk =   0.0055402
        k(   23) = (   0.1100000   0.0000000   0.1100000), wk =   0.0055402
        k(   24) = (   0.1150000   0.0000000   0.1150000), wk =   0.0055402
        k(   25) = (   0.1200000   0.0000000   0.1200000), wk =   0.0055402
        k(   26) = (   0.1250000   0.0000000   0.1250000), wk =   0.0055402
        k(   27) = (   0.1300000   0.0000000   0.1300000), wk =   0.0055402
        k(   28) = (   0.1350000   0.0000000   0.1350000), wk =   0.0055402
        k(   29) = (   0.1400000   0.0000000   0.1400000), wk =   0.0055402
        k(   30) = (   0.1450000   0.0000000   0.1450000), wk =   0.0055402
        k(   31) = (   0.1500000   0.0000000   0.1500000), wk =   0.0055402
        k(   32) = (   0.1550000   0.0000000   0.1550000), wk =   0.0055402
        k(   33) = (   0.1600000   0.0000000   0.1600000), wk =   0.0055402
        k(   34) = (   0.1650000   0.0000000   0.1650000), wk =   0.0055402
        k(   35) = (   0.1700000   0.0000000   0.1700000), wk =   0.0055402
        k(   36) = (   0.1750000   0.0000000   0.1750000), wk =   0.0055402
        k(   37) = (   0.1800000   0.0000000   0.1800000), wk =   0.0055402
        k(   38) = (   0.1850000   0.0000000   0.1850000), wk =   0.0055402
        k(   39) = (   0.1900000   0.0000000   0.1900000), wk =   0.0055402
        k(   40) = (   0.1950000   0.0000000   0.1950000), wk =   0.0055402
        k(   41) = (   0.2000000   0.0000000   0.2000000), wk =   0.0055402
        k(   42) = (   0.2050000   0.0000000   0.2050000), wk =   0.0055402
        k(   43) = (   0.2100000   0.0000000   0.2100000), wk =   0.0055402
        k(   44) = (   0.2150000   0.0000000   0.2150000), wk =   0.0055402
        k(   45) = (   0.2200000   0.0000000   0.2200000), wk =   0.0055402
        k(   46) = (   0.2250000   0.0000000   0.2250000), wk =   0.0055402
        k(   47) = (   0.2300000   0.0000000   0.2300000), wk =   0.0055402
        k(   48) = (   0.2350000   0.0000000   0.2350000), wk =   0.0055402
        k(   49) = (   0.2400000   0.0000000   0.2400000), wk =   0.0055402
        k(   50) = (   0.2450000   0.0000000   0.2450000), wk =   0.0055402
        k(   51) = (   0.2500000   0.0000000   0.2500000), wk =   0.0055402
        k(   52) = (   0.2550000   0.0000000   0.2550000), wk =   0.0055402
        k(   53) = (   0.2600000   0.0000000   0.2600000), wk =   0.0055402
        k(   54) = (   0.2650000   0.0000000   0.2650000), wk =   0.0055402
        k(   55) = (   0.2700000   0.0000000   0.2700000), wk =   0.0055402
        k(   56) = (   0.2750000   0.0000000   0.2750000), wk =   0.0055402
        k(   57) = (   0.2800000   0.0000000   0.2800000), wk =   0.0055402
        k(   58) = (   0.2850000   0.0000000   0.2850000), wk =   0.0055402
        k(   59) = (   0.2900000   0.0000000   0.2900000), wk =   0.0055402
        k(   60) = (   0.2950000   0.0000000   0.2950000), wk =   0.0055402
        k(   61) = (   0.3000000   0.0000000   0.3000000), wk =   0.0055402
        k(   62) = (   0.3050000   0.0000000   0.3050000), wk =   0.0055402
        k(   63) = (   0.3100000   0.0000000   0.3100000), wk =   0.0055402
        k(   64) = (   0.3150000   0.0000000   0.3150000), wk =   0.0055402
        k(   65) = (   0.3200000   0.0000000   0.3200000), wk =   0.0055402
        k(   66) = (   0.3250000   0.0000000   0.3250000), wk =   0.0055402
        k(   67) = (   0.3300000   0.0000000   0.3300000), wk =   0.0055402
        k(   68) = (   0.3350000   0.0000000   0.3350000), wk =   0.0055402
        k(   69) = (   0.3400000   0.0000000   0.3400000), wk =   0.0055402
        k(   70) = (   0.3450000   0.0000000   0.3450000), wk =   0.0055402
        k(   71) = (   0.3500000   0.0000000   0.3500000), wk =   0.0055402
        k(   72) = (   0.3550000   0.0000000   0.3550000), wk =   0.0055402
        k(   73) = (   0.3600000   0.0000000   0.3600000), wk =   0.0055402
        k(   74) = (   0.3650000   0.0000000   0.3650000), wk =   0.0055402
        k(   75) = (   0.3700000   0.0000000   0.3700000), wk =   0.0055402
        k(   76) = (   0.3750000   0.0000000   0.3750000), wk =   0.0055402
        k(   77) = (   0.3800000   0.0000000   0.3800000), wk =   0.0055402
        k(   78) = (   0.3850000   0.0000000   0.3850000), wk =   0.0055402
        k(   79) = (   0.3900000   0.0000000   0.3900000), wk =   0.0055402
        k(   80) = (   0.3950000   0.0000000   0.3950000), wk =   0.0055402
        k(   81) = (   0.4000000   0.0000000   0.4000000), wk =   0.0055402
        k(   82) = (   0.4050000   0.0000000   0.4050000), wk =   0.0055402
        k(   83) = (   0.4100000   0.0000000   0.4100000), wk =   0.0055402
        k(   84) = (   0.4150000   0.0000000   0.4150000), wk =   0.0055402
        k(   85) = (   0.4200000   0.0000000   0.4200000), wk =   0.0055402
        k(   86) = (   0.4250000   0.0000000   0.4250000), wk =   0.0055402
        k(   87) = (   0.4300000   0.0000000   0.4300000), wk =   0.0055402
        k(   88) = (   0.4350000   0.0000000   0.4350000), wk =   0.0055402
        k(   89) = (   0.4400000   0.0000000   0.4400000), wk =   0.0055402
        k(   90) = (   0.4450000   0.0000000   0.4450000), wk =   0.0055402
        k(   91) = (   0.4500000   0.0000000   0.4500000), wk =   0.0055402
        k(   92) = (   0.4550000   0.0000000   0.4550000), wk =   0.0055402
        k(   93) = (   0.4600000   0.0000000   0.4600000), wk =   0.0055402
        k(   94) = (   0.4650000   0.0000000   0.4650000), wk =   0.0055402
        k(   95) = (   0.4700000   0.0000000   0.4700000), wk =   0.0055402
        k(   96) = (   0.4750000   0.0000000   0.4750000), wk =   0.0055402
        k(   97) = (   0.4800000   0.0000000   0.4800000), wk =   0.0055402
        k(   98) = (   0.4850000   0.0000000   0.4850000), wk =   0.0055402
        k(   99) = (   0.4900000   0.0000000   0.4900000), wk =   0.0055402
        k(  100) = (   0.4950000   0.0000000   0.4950000), wk =   0.0055402
        k(  101) = (   0.5000000   0.0000000   0.5000000), wk =   0.0055402
        k(  102) = (   0.5083333   0.0083333   0.5000000), wk =   0.0055402
        k(  103) = (   0.5166667   0.0166667   0.5000000), wk =   0.0055402
        k(  104) = (   0.5250000   0.0250000   0.5000000), wk =   0.0055402
        k(  105) = (   0.5333333   0.0333333   0.5000000), wk =   0.0055402
        k(  106) = (   0.5416667   0.0416667   0.5000000), wk =   0.0055402
        k(  107) = (   0.5500000   0.0500000   0.5000000), wk =   0.0055402
        k(  108) = (   0.5583333   0.0583333   0.5000000), wk =   0.0055402
        k(  109) = (   0.5666667   0.0666667   0.5000000), wk =   0.0055402
        k(  110) = (   0.5750000   0.0750000   0.5000000), wk =   0.0055402
        k(  111) = (   0.5833333   0.0833333   0.5000000), wk =   0.0055402
        k(  112) = (   0.5916667   0.0916667   0.5000000), wk =   0.0055402
        k(  113) = (   0.6000000   0.1000000   0.5000000), wk =   0.0055402
        k(  114) = (   0.6083333   0.1083333   0.5000000), wk =   0.0055402
        k(  115) = (   0.6166667   0.1166667   0.5000000), wk =   0.0055402
        k(  116) = (   0.6250000   0.1250000   0.5000000), wk =   0.0055402
        k(  117) = (   0.6333333   0.1333333   0.5000000), wk =   0.0055402
        k(  118) = (   0.6416667   0.1416667   0.5000000), wk =   0.0055402
        k(  119) = (   0.6500000   0.1500000   0.5000000), wk =   0.0055402
        k(  120) = (   0.6583333   0.1583333   0.5000000), wk =   0.0055402
        k(  121) = (   0.6666667   0.1666667   0.5000000), wk =   0.0055402
        k(  122) = (   0.6750000   0.1750000   0.5000000), wk =   0.0055402
        k(  123) = (   0.6833333   0.1833333   0.5000000), wk =   0.0055402
        k(  124) = (   0.6916667   0.1916667   0.5000000), wk =   0.0055402
        k(  125) = (   0.7000000   0.2000000   0.5000000), wk =   0.0055402
        k(  126) = (   0.7083333   0.2083333   0.5000000), wk =   0.0055402
        k(  127) = (   0.7166667   0.2166667   0.5000000), wk =   0.0055402
        k(  128) = (   0.7250000   0.2250000   0.5000000), wk =   0.0055402
        k(  129) = (   0.7333333   0.2333333   0.5000000), wk =   0.0055402
        k(  130) = (   0.7416667   0.2416667   0.5000000), wk =   0.0055402
        k(  131) = (   0.7500000   0.2500000   0.5000000), wk =   0.0055402
        k(  132) = (   0.7450000   0.2550000   0.5000000), wk =   0.0055402
        k(  133) = (   0.7400000   0.2600000   0.5000000), wk =   0.0055402
        k(  134) = (   0.7350000   0.2650000   0.5000000), wk =   0.0055402
        k(  135) = (   0.7300000   0.2700000   0.5000000), wk =   0.0055402
        k(  136) = (   0.7250000   0.2750000   0.5000000), wk =   0.0055402
        k(  137) = (   0.7200000   0.2800000   0.5000000), wk =   0.0055402
        k(  138) = (   0.7150000   0.2850000   0.5000000), wk =   0.0055402
        k(  139) = (   0.7100000   0.2900000   0.5000000), wk =   0.0055402
        k(  140) = (   0.7050000   0.2950000   0.5000000), wk =   0.0055402
        k(  141) = (   0.7000000   0.3000000   0.5000000), wk =   0.0055402
        k(  142) = (   0.6950000   0.3050000   0.5000000), wk =   0.0055402
        k(  143) = (   0.6900000   0.3100000   0.5000000), wk =   0.0055402
        k(  144) = (   0.6850000   0.3150000   0.5000000), wk =   0.0055402
        k(  145) = (   0.6800000   0.3200000   0.5000000), wk =   0.0055402
        k(  146) = (   0.6750000   0.3250000   0.5000000), wk =   0.0055402
        k(  147) = (   0.6700000   0.3300000   0.5000000), wk =   0.0055402
        k(  148) = (   0.6650000   0.3350000   0.5000000), wk =   0.0055402
        k(  149) = (   0.6600000   0.3400000   0.5000000), wk =   0.0055402
        k(  150) = (   0.6550000   0.3450000   0.5000000), wk =   0.0055402
        k(  151) = (   0.6500000   0.3500000   0.5000000), wk =   0.0055402
        k(  152) = (   0.6450000   0.3550000   0.5000000), wk =   0.0055402
        k(  153) = (   0.6400000   0.3600000   0.5000000), wk =   0.0055402
        k(  154) = (   0.6350000   0.3650000   0.5000000), wk =   0.0055402
        k(  155) = (   0.6300000   0.3700000   0.5000000), wk =   0.0055402
        k(  156) = (   0.6250000   0.3750000   0.5000000), wk =   0.0055402
        k(  157) = (   0.6200000   0.3800000   0.5000000), wk =   0.0055402
        k(  158) = (   0.6150000   0.3850000   0.5000000), wk =   0.0055402
        k(  159) = (   0.6100000   0.3900000   0.5000000), wk =   0.0055402
        k(  160) = (   0.6050000   0.3950000   0.5000000), wk =   0.0055402
        k(  161) = (   0.6000000   0.4000000   0.5000000), wk =   0.0055402
        k(  162) = (   0.5950000   0.4050000   0.5000000), wk =   0.0055402
        k(  163) = (   0.5900000   0.4100000   0.5000000), wk =   0.0055402
        k(  164) = (   0.5850000   0.4150000   0.5000000), wk =   0.0055402
        k(  165) = (   0.5800000   0.4200000   0.5000000), wk =   0.0055402
        k(  166) = (   0.5750000   0.4250000   0.5000000), wk =   0.0055402
        k(  167) = (   0.5700000   0.4300000   0.5000000), wk =   0.0055402
        k(  168) = (   0.5650000   0.4350000   0.5000000), wk =   0.0055402
        k(  169) = (   0.5600000   0.4400000   0.5000000), wk =   0.0055402
        k(  170) = (   0.5550000   0.4450000   0.5000000), wk =   0.0055402
        k(  171) = (   0.5500000   0.4500000   0.5000000), wk =   0.0055402
        k(  172) = (   0.5450000   0.4550000   0.5000000), wk =   0.0055402
        k(  173) = (   0.5400000   0.4600000   0.5000000), wk =   0.0055402
        k(  174) = (   0.5350000   0.4650000   0.5000000), wk =   0.0055402
        k(  175) = (   0.5300000   0.4700000   0.5000000), wk =   0.0055402
        k(  176) = (   0.5250000   0.4750000   0.5000000), wk =   0.0055402
        k(  177) = (   0.5200000   0.4800000   0.5000000), wk =   0.0055402
        k(  178) = (   0.5150000   0.4850000   0.5000000), wk =   0.0055402
        k(  179) = (   0.5100000   0.4900000   0.5000000), wk =   0.0055402
        k(  180) = (   0.5050000   0.4950000   0.5000000), wk =   0.0055402
        k(  181) = (   0.5000000   0.5000000   0.5000000), wk =   0.0055402
        k(  182) = (   0.4928571   0.4928571   0.4928571), wk =   0.0055402
        k(  183) = (   0.4857143   0.4857143   0.4857143), wk =   0.0055402
        k(  184) = (   0.4785714   0.4785714   0.4785714), wk =   0.0055402
        k(  185) = (   0.4714286   0.4714286   0.4714286), wk =   0.0055402
        k(  186) = (   0.4642857   0.4642857   0.4642857), wk =   0.0055402
        k(  187) = (   0.4571429   0.4571429   0.4571429), wk =   0.0055402
        k(  188) = (   0.4500000   0.4500000   0.4500000), wk =   0.0055402
        k(  189) = (   0.4428571   0.4428571   0.4428571), wk =   0.0055402
        k(  190) = (   0.4357143   0.4357143   0.4357143), wk =   0.0055402
        k(  191) = (   0.4285714   0.4285714   0.4285714), wk =   0.0055402
        k(  192) = (   0.4214286   0.4214286   0.4214286), wk =   0.0055402
        k(  193) = (   0.4142857   0.4142857   0.4142857), wk =   0.0055402
        k(  194) = (   0.4071429   0.4071429   0.4071429), wk =   0.0055402
        k(  195) = (   0.4000000   0.4000000   0.4000000), wk =   0.0055402
        k(  196) = (   0.3928571   0.3928571   0.3928571), wk =   0.0055402
        k(  197) = (   0.3857143   0.3857143   0.3857143), wk =   0.0055402
        k(  198) = (   0.3785714   0.3785714   0.3785714), wk =   0.0055402
        k(  199) = (   0.3714286   0.3714286   0.3714286), wk =   0.0055402
        k(  200) = (   0.3642857   0.3642857   0.3642857), wk =   0.0055402
        k(  201) = (   0.3571429   0.3571429   0.3571429), wk =   0.0055402
        k(  202) = (   0.3500000   0.3500000   0.3500000), wk =   0.0055402
        k(  203) = (   0.3428571   0.3428571   0.3428571), wk =   0.0055402
        k(  204) = (   0.3357143   0.3357143   0.3357143), wk =   0.0055402
        k(  205) = (   0.3285714   0.3285714   0.3285714), wk =   0.0055402
        k(  206) = (   0.3214286   0.3214286   0.3214286), wk =   0.0055402
        k(  207) = (   0.3142857   0.3142857   0.3142857), wk =   0.0055402
        k(  208) = (   0.3071429   0.3071429   0.3071429), wk =   0.0055402
        k(  209) = (   0.3000000   0.3000000   0.3000000), wk =   0.0055402
        k(  210) = (   0.2928571   0.2928571   0.2928571), wk =   0.0055402
        k(  211) = (   0.2857143   0.2857143   0.2857143), wk =   0.0055402
        k(  212) = (   0.2785714   0.2785714   0.2785714), wk =   0.0055402
        k(  213) = (   0.2714286   0.2714286   0.2714286), wk =   0.0055402
        k(  214) = (   0.2642857   0.2642857   0.2642857), wk =   0.0055402
        k(  215) = (   0.2571429   0.2571429   0.2571429), wk =   0.0055402
        k(  216) = (   0.2500000   0.2500000   0.2500000), wk =   0.0055402
        k(  217) = (   0.2428571   0.2428571   0.2428571), wk =   0.0055402
        k(  218) = (   0.2357143   0.2357143   0.2357143), wk =   0.0055402
        k(  219) = (   0.2285714   0.2285714   0.2285714), wk =   0.0055402
        k(  220) = (   0.2214286   0.2214286   0.2214286), wk =   0.0055402
        k(  221) = (   0.2142857   0.2142857   0.2142857), wk =   0.0055402
        k(  222) = (   0.2071429   0.2071429   0.2071429), wk =   0.0055402
        k(  223) = (   0.2000000   0.2000000   0.2000000), wk =   0.0055402
        k(  224) = (   0.1928571   0.1928571   0.1928571), wk =   0.0055402
        k(  225) = (   0.1857143   0.1857143   0.1857143), wk =   0.0055402
        k(  226) = (   0.1785714   0.1785714   0.1785714), wk =   0.0055402
        k(  227) = (   0.1714286   0.1714286   0.1714286), wk =   0.0055402
        k(  228) = (   0.1642857   0.1642857   0.1642857), wk =   0.0055402
        k(  229) = (   0.1571429   0.1571429   0.1571429), wk =   0.0055402
        k(  230) = (   0.1500000   0.1500000   0.1500000), wk =   0.0055402
        k(  231) = (   0.1428571   0.1428571   0.1428571), wk =   0.0055402
        k(  232) = (   0.1357143   0.1357143   0.1357143), wk =   0.0055402
        k(  233) = (   0.1285714   0.1285714   0.1285714), wk =   0.0055402
        k(  234) = (   0.1214286   0.1214286   0.1214286), wk =   0.0055402
        k(  235) = (   0.1142857   0.1142857   0.1142857), wk =   0.0055402
        k(  236) = (   0.1071429   0.1071429   0.1071429), wk =   0.0055402
        k(  237) = (   0.1000000   0.1000000   0.1000000), wk =   0.0055402
        k(  238) = (   0.0928571   0.0928571   0.0928571), wk =   0.0055402
        k(  239) = (   0.0857143   0.0857143   0.0857143), wk =   0.0055402
        k(  240) = (   0.0785714   0.0785714   0.0785714), wk =   0.0055402
        k(  241) = (   0.0714286   0.0714286   0.0714286), wk =   0.0055402
        k(  242) = (   0.0642857   0.0642857   0.0642857), wk =   0.0055402
        k(  243) = (   0.0571429   0.0571429   0.0571429), wk =   0.0055402
        k(  244) = (   0.0500000   0.0500000   0.0500000), wk =   0.0055402
        k(  245) = (   0.0428571   0.0428571   0.0428571), wk =   0.0055402
        k(  246) = (   0.0357143   0.0357143   0.0357143), wk =   0.0055402
        k(  247) = (   0.0285714   0.0285714   0.0285714), wk =   0.0055402
        k(  248) = (   0.0214286   0.0214286   0.0214286), wk =   0.0055402
        k(  249) = (   0.0142857   0.0142857   0.0142857), wk =   0.0055402
        k(  250) = (   0.0071429   0.0071429   0.0071429), wk =   0.0055402
        k(  251) = (   0.0000000   0.0000000   0.0000000), wk =   0.0055402
        k(  252) = (   0.0062500   0.0025000   0.0062500), wk =   0.0055402
        k(  253) = (   0.0125000   0.0050000   0.0125000), wk =   0.0055402
        k(  254) = (   0.0187500   0.0075000   0.0187500), wk =   0.0055402
        k(  255) = (   0.0250000   0.0100000   0.0250000), wk =   0.0055402
        k(  256) = (   0.0312500   0.0125000   0.0312500), wk =   0.0055402
        k(  257) = (   0.0375000   0.0150000   0.0375000), wk =   0.0055402
        k(  258) = (   0.0437500   0.0175000   0.0437500), wk =   0.0055402
        k(  259) = (   0.0500000   0.0200000   0.0500000), wk =   0.0055402
        k(  260) = (   0.0562500   0.0225000   0.0562500), wk =   0.0055402
        k(  261) = (   0.0625000   0.0250000   0.0625000), wk =   0.0055402
        k(  262) = (   0.0687500   0.0275000   0.0687500), wk =   0.0055402
        k(  263) = (   0.0750000   0.0300000   0.0750000), wk =   0.0055402
        k(  264) = (   0.0812500   0.0325000   0.0812500), wk =   0.0055402
        k(  265) = (   0.0875000   0.0350000   0.0875000), wk =   0.0055402
        k(  266) = (   0.0937500   0.0375000   0.0937500), wk =   0.0055402
        k(  267) = (   0.1000000   0.0400000   0.1000000), wk =   0.0055402
        k(  268) = (   0.1062500   0.0425000   0.1062500), wk =   0.0055402
        k(  269) = (   0.1125000   0.0450000   0.1125000), wk =   0.0055402
        k(  270) = (   0.1187500   0.0475000   0.1187500), wk =   0.0055402
        k(  271) = (   0.1250000   0.0500000   0.1250000), wk =   0.0055402
        k(  272) = (   0.1312500   0.0525000   0.1312500), wk =   0.0055402
        k(  273) = (   0.1375000   0.0550000   0.1375000), wk =   0.0055402
        k(  274) = (   0.1437500   0.0575000   0.1437500), wk =   0.0055402
        k(  275) = (   0.1500000   0.0600000   0.1500000), wk =   0.0055402
        k(  276) = (   0.1562500   0.0625000   0.1562500), wk =   0.0055402
        k(  277) = (   0.1625000   0.0650000   0.1625000), wk =   0.0055402
        k(  278) = (   0.1687500   0.0675000   0.1687500), wk =   0.0055402
        k(  279) = (   0.1750000   0.0700000   0.1750000), wk =   0.0055402
        k(  280) = (   0.1812500   0.0725000   0.1812500), wk =   0.0055402
        k(  281) = (   0.1875000   0.0750000   0.1875000), wk =   0.0055402
        k(  282) = (   0.1937500   0.0775000   0.1937500), wk =   0.0055402
        k(  283) = (   0.2000000   0.0800000   0.2000000), wk =   0.0055402
        k(  284) = (   0.2062500   0.0825000   0.2062500), wk =   0.0055402
        k(  285) = (   0.2125000   0.0850000   0.2125000), wk =   0.0055402
        k(  286) = (   0.2187500   0.0875000   0.2187500), wk =   0.0055402
        k(  287) = (   0.2250000   0.0900000   0.2250000), wk =   0.0055402
        k(  288) = (   0.2312500   0.0925000   0.2312500), wk =   0.0055402
        k(  289) = (   0.2375000   0.0950000   0.2375000), wk =   0.0055402
        k(  290) = (   0.2437500   0.0975000   0.2437500), wk =   0.0055402
        k(  291) = (   0.2500000   0.1000000   0.2500000), wk =   0.0055402
        k(  292) = (   0.2562500   0.1025000   0.2562500), wk =   0.0055402
        k(  293) = (   0.2625000   0.1050000   0.2625000), wk =   0.0055402
        k(  294) = (   0.2687500   0.1075000   0.2687500), wk =   0.0055402
        k(  295) = (   0.2750000   0.1100000   0.2750000), wk =   0.0055402
        k(  296) = (   0.2812500   0.1125000   0.2812500), wk =   0.0055402
        k(  297) = (   0.2875000   0.1150000   0.2875000), wk =   0.0055402
        k(  298) = (   0.2937500   0.1175000   0.2937500), wk =   0.0055402
        k(  299) = (   0.3000000   0.1200000   0.3000000), wk =   0.0055402
        k(  300) = (   0.3062500   0.1225000   0.3062500), wk =   0.0055402
        k(  301) = (   0.3125000   0.1250000   0.3125000), wk =   0.0055402
        k(  302) = (   0.3187500   0.1275000   0.3187500), wk =   0.0055402
        k(  303) = (   0.3250000   0.1300000   0.3250000), wk =   0.0055402
        k(  304) = (   0.3312500   0.1325000   0.3312500), wk =   0.0055402
        k(  305) = (   0.3375000   0.1350000   0.3375000), wk =   0.0055402
        k(  306) = (   0.3437500   0.1375000   0.3437500), wk =   0.0055402
        k(  307) = (   0.3500000   0.1400000   0.3500000), wk =   0.0055402
        k(  308) = (   0.3562500   0.1425000   0.3562500), wk =   0.0055402
        k(  309) = (   0.3625000   0.1450000   0.3625000), wk =   0.0055402
        k(  310) = (   0.3687500   0.1475000   0.3687500), wk =   0.0055402
        k(  311) = (   0.3750000   0.1500000   0.3750000), wk =   0.0055402
        k(  312) = (   0.3812500   0.1525000   0.3812500), wk =   0.0055402
        k(  313) = (   0.3875000   0.1550000   0.3875000), wk =   0.0055402
        k(  314) = (   0.3937500   0.1575000   0.3937500), wk =   0.0055402
        k(  315) = (   0.4000000   0.1600000   0.4000000), wk =   0.0055402
        k(  316) = (   0.4062500   0.1625000   0.4062500), wk =   0.0055402
        k(  317) = (   0.4125000   0.1650000   0.4125000), wk =   0.0055402
        k(  318) = (   0.4187500   0.1675000   0.4187500), wk =   0.0055402
        k(  319) = (   0.4250000   0.1700000   0.4250000), wk =   0.0055402
        k(  320) = (   0.4312500   0.1725000   0.4312500), wk =   0.0055402
        k(  321) = (   0.4375000   0.1750000   0.4375000), wk =   0.0055402
        k(  322) = (   0.4437500   0.1775000   0.4437500), wk =   0.0055402
        k(  323) = (   0.4500000   0.1800000   0.4500000), wk =   0.0055402
        k(  324) = (   0.4562500   0.1825000   0.4562500), wk =   0.0055402
        k(  325) = (   0.4625000   0.1850000   0.4625000), wk =   0.0055402
        k(  326) = (   0.4687500   0.1875000   0.4687500), wk =   0.0055402
        k(  327) = (   0.4750000   0.1900000   0.4750000), wk =   0.0055402
        k(  328) = (   0.4812500   0.1925000   0.4812500), wk =   0.0055402
        k(  329) = (   0.4875000   0.1950000   0.4875000), wk =   0.0055402
        k(  330) = (   0.4937500   0.1975000   0.4937500), wk =   0.0055402
        k(  331) = (   0.5000000   0.2000000   0.5000000), wk =   0.0055402
        k(  332) = (   0.5062500   0.2025000   0.5062500), wk =   0.0055402
        k(  333) = (   0.5125000   0.2050000   0.5125000), wk =   0.0055402
        k(  334) = (   0.5187500   0.2075000   0.5187500), wk =   0.0055402
        k(  335) = (   0.5250000   0.2100000   0.5250000), wk =   0.0055402
        k(  336) = (   0.5312500   0.2125000   0.5312500), wk =   0.0055402
        k(  337) = (   0.5375000   0.2150000   0.5375000), wk =   0.0055402
        k(  338) = (   0.5437500   0.2175000   0.5437500), wk =   0.0055402
        k(  339) = (   0.5500000   0.2200000   0.5500000), wk =   0.0055402
        k(  340) = (   0.5562500   0.2225000   0.5562500), wk =   0.0055402
        k(  341) = (   0.5625000   0.2250000   0.5625000), wk =   0.0055402
        k(  342) = (   0.5687500   0.2275000   0.5687500), wk =   0.0055402
        k(  343) = (   0.5750000   0.2300000   0.5750000), wk =   0.0055402
        k(  344) = (   0.5812500   0.2325000   0.5812500), wk =   0.0055402
        k(  345) = (   0.5875000   0.2350000   0.5875000), wk =   0.0055402
        k(  346) = (   0.5937500   0.2375000   0.5937500), wk =   0.0055402
        k(  347) = (   0.6000000   0.2400000   0.6000000), wk =   0.0055402
        k(  348) = (   0.6062500   0.2425000   0.6062500), wk =   0.0055402
        k(  349) = (   0.6125000   0.2450000   0.6125000), wk =   0.0055402
        k(  350) = (   0.6187500   0.2475000   0.6187500), wk =   0.0055402
        k(  351) = (   0.6250000   0.2500000   0.6250000), wk =   0.0055402
        k(  352) = (   0.6125000   0.2250000   0.6125000), wk =   0.0055402
        k(  353) = (   0.6000000   0.2000000   0.6000000), wk =   0.0055402
        k(  354) = (   0.5875000   0.1750000   0.5875000), wk =   0.0055402
        k(  355) = (   0.5750000   0.1500000   0.5750000), wk =   0.0055402
        k(  356) = (   0.5625000   0.1250000   0.5625000), wk =   0.0055402
        k(  357) = (   0.5500000   0.1000000   0.5500000), wk =   0.0055402
        k(  358) = (   0.5375000   0.0750000   0.5375000), wk =   0.0055402
        k(  359) = (   0.5250000   0.0500000   0.5250000), wk =   0.0055402
        k(  360) = (   0.5125000   0.0250000   0.5125000), wk =   0.0055402
        k(  361) = (   0.5000000   0.0000000   0.5000000), wk =   0.0055402

     Dense  grid:    13635 G-vectors     FFT dimensions: (  36,  36,  36)

     Smooth grid:     4909 G-vectors     FFT dimensions: (  24,  24,  24)

     Dynamical RAM for                 wfc:       0.07 MB

     Dynamical RAM for     wfc (w. buffer):       0.07 MB

     Dynamical RAM for           str. fact:       0.42 MB

     Dynamical RAM for           local pot:       0.00 MB

     Dynamical RAM for          nlocal pot:       0.15 MB

     Dynamical RAM for                qrad:       1.08 MB

     Dynamical RAM for          rho,v,vnew:       1.69 MB

     Dynamical RAM for           G-vectors:       0.82 MB

     Dynamical RAM for          h,s,v(r/c):       0.05 MB

     Dynamical RAM for          <psi|beta>:       0.00 MB

     Dynamical RAM for                 psi:       0.30 MB

     Dynamical RAM for                hpsi:       0.30 MB

     Dynamical RAM for                spsi:       0.30 MB

     Dynamical RAM for      wfcinit/wfcrot:       0.15 MB

     Dynamical RAM for           addusdens:       9.15 MB

     Estimated static dynamical RAM per process >       6.63 MB

     Estimated max dynamical RAM per process >      15.79 MB

     Check: negative core charge=   -0.000004

     The potential is recalculated from file :
     ./tmp/SiC.save/charge-density

     Starting wfcs are    8 randomized atomic wfcs

     Band Structure Calculation
     Davidson diagonalization with overlap

     Computing kpt #:     1  of   361
     total cpu time spent up to now is        1.4 secs

     Computing kpt #:     2  of   361
     total cpu time spent up to now is        1.5 secs

     Computing kpt #:     3  of   361
     total cpu time spent up to now is        1.5 secs

     Computing kpt #:     4  of   361
     total cpu time spent up to now is        1.6 secs

     Computing kpt #:     5  of   361
     total cpu time spent up to now is        1.6 secs

     Computing kpt #:     6  of   361
     total cpu time spent up to now is        1.7 secs

     Computing kpt #:     7  of   361
     total cpu time spent up to now is        1.7 secs

     Computing kpt #:     8  of   361
     total cpu time spent up to now is        1.8 secs

     Computing kpt #:     9  of   361
     total cpu time spent up to now is        1.8 secs

     Computing kpt #:    10  of   361
     total cpu time spent up to now is        1.8 secs

     Computing kpt #:    11  of   361
     total cpu time spent up to now is        1.9 secs

     Computing kpt #:    12  of   361
     total cpu time spent up to now is        1.9 secs

     Computing kpt #:    13  of   361
     total cpu time spent up to now is        2.0 secs

     Computing kpt #:    14  of   361
     total cpu time spent up to now is        2.0 secs

     Computing kpt #:    15  of   361
     total cpu time spent up to now is        2.1 secs

     Computing kpt #:    16  of   361
     total cpu time spent up to now is        2.2 secs

     Computing kpt #:    17  of   361
     total cpu time spent up to now is        2.2 secs

     Computing kpt #:    18  of   361
     total cpu time spent up to now is        2.3 secs

     Computing kpt #:    19  of   361
     total cpu time spent up to now is        2.3 secs

     Computing kpt #:    20  of   361
     total cpu time spent up to now is        2.4 secs

     Computing kpt #:    21  of   361
     total cpu time spent up to now is        2.4 secs

     Computing kpt #:    22  of   361
     total cpu time spent up to now is        2.5 secs

     Computing kpt #:    23  of   361
     total cpu time spent up to now is        2.6 secs

     Computing kpt #:    24  of   361
     total cpu time spent up to now is        2.6 secs

     Computing kpt #:    25  of   361
     total cpu time spent up to now is        2.7 secs

     Computing kpt #:    26  of   361
     total cpu time spent up to now is        2.7 secs

     Computing kpt #:    27  of   361
     total cpu time spent up to now is        2.8 secs

     Computing kpt #:    28  of   361
     total cpu time spent up to now is        2.8 secs

     Computing kpt #:    29  of   361
     total cpu time spent up to now is        2.9 secs

     Computing kpt #:    30  of   361
     total cpu time spent up to now is        3.0 secs

     Computing kpt #:    31  of   361
     total cpu time spent up to now is        3.0 secs

     Computing kpt #:    32  of   361
     total cpu time spent up to now is        3.1 secs

     Computing kpt #:    33  of   361
     total cpu time spent up to now is        3.1 secs

     Computing kpt #:    34  of   361
     total cpu time spent up to now is        3.2 secs

     Computing kpt #:    35  of   361
     total cpu time spent up to now is        3.3 secs

     Computing kpt #:    36  of   361
     total cpu time spent up to now is        3.3 secs

     Computing kpt #:    37  of   361
     total cpu time spent up to now is        3.4 secs

     Computing kpt #:    38  of   361
     total cpu time spent up to now is        3.5 secs

     Computing kpt #:    39  of   361
     total cpu time spent up to now is        3.5 secs

     Computing kpt #:    40  of   361
     total cpu time spent up to now is        3.6 secs

     Computing kpt #:    41  of   361
     total cpu time spent up to now is        3.6 secs

     Computing kpt #:    42  of   361
     total cpu time spent up to now is        3.7 secs

     Computing kpt #:    43  of   361
     total cpu time spent up to now is        3.8 secs

     Computing kpt #:    44  of   361
     total cpu time spent up to now is        3.8 secs

     Computing kpt #:    45  of   361
     total cpu time spent up to now is        3.9 secs

     Computing kpt #:    46  of   361
     total cpu time spent up to now is        4.0 secs

     Computing kpt #:    47  of   361
     total cpu time spent up to now is        4.0 secs

     Computing kpt #:    48  of   361
     total cpu time spent up to now is        4.1 secs

     Computing kpt #:    49  of   361
     total cpu time spent up to now is        4.1 secs

     Computing kpt #:    50  of   361
     total cpu time spent up to now is        4.2 secs

     Computing kpt #:    51  of   361
     total cpu time spent up to now is        4.3 secs

     Computing kpt #:    52  of   361
     total cpu time spent up to now is        4.3 secs

     Computing kpt #:    53  of   361
     total cpu time spent up to now is        4.4 secs

     Computing kpt #:    54  of   361
     total cpu time spent up to now is        4.4 secs

     Computing kpt #:    55  of   361
     total cpu time spent up to now is        4.5 secs

     Computing kpt #:    56  of   361
     total cpu time spent up to now is        4.6 secs

     Computing kpt #:    57  of   361
     total cpu time spent up to now is        4.6 secs

     Computing kpt #:    58  of   361
     total cpu time spent up to now is        4.7 secs

     Computing kpt #:    59  of   361
     total cpu time spent up to now is        4.7 secs

     Computing kpt #:    60  of   361
     total cpu time spent up to now is        4.8 secs

     Computing kpt #:    61  of   361
     total cpu time spent up to now is        4.9 secs

     Computing kpt #:    62  of   361
     total cpu time spent up to now is        4.9 secs

     Computing kpt #:    63  of   361
     total cpu time spent up to now is        5.0 secs

     Computing kpt #:    64  of   361
     total cpu time spent up to now is        5.0 secs

     Computing kpt #:    65  of   361
     total cpu time spent up to now is        5.1 secs

     Computing kpt #:    66  of   361
     total cpu time spent up to now is        5.2 secs

     Computing kpt #:    67  of   361
     total cpu time spent up to now is        5.2 secs

     Computing kpt #:    68  of   361
     total cpu time spent up to now is        5.3 secs

     Computing kpt #:    69  of   361
     total cpu time spent up to now is        5.3 secs

     Computing kpt #:    70  of   361
     total cpu time spent up to now is        5.4 secs

     Computing kpt #:    71  of   361
     total cpu time spent up to now is        5.5 secs

     Computing kpt #:    72  of   361
     total cpu time spent up to now is        5.5 secs

     Computing kpt #:    73  of   361
     total cpu time spent up to now is        5.6 secs

     Computing kpt #:    74  of   361
     total cpu time spent up to now is        5.7 secs

     Computing kpt #:    75  of   361
     total cpu time spent up to now is        5.7 secs

     Computing kpt #:    76  of   361
     total cpu time spent up to now is        5.8 secs

     Computing kpt #:    77  of   361
     total cpu time spent up to now is        5.9 secs

     Computing kpt #:    78  of   361
     total cpu time spent up to now is        5.9 secs

     Computing kpt #:    79  of   361
     total cpu time spent up to now is        6.0 secs

     Computing kpt #:    80  of   361
     total cpu time spent up to now is        6.0 secs

     Computing kpt #:    81  of   361
     total cpu time spent up to now is        6.1 secs

     Computing kpt #:    82  of   361
     total cpu time spent up to now is        6.2 secs

     Computing kpt #:    83  of   361
     total cpu time spent up to now is        6.2 secs

     Computing kpt #:    84  of   361
     total cpu time spent up to now is        6.3 secs

     Computing kpt #:    85  of   361
     total cpu time spent up to now is        6.4 secs

     Computing kpt #:    86  of   361
     total cpu time spent up to now is        6.4 secs

     Computing kpt #:    87  of   361
     total cpu time spent up to now is        6.5 secs

     Computing kpt #:    88  of   361
     total cpu time spent up to now is        6.5 secs

     Computing kpt #:    89  of   361
     total cpu time spent up to now is        6.6 secs

     Computing kpt #:    90  of   361
     total cpu time spent up to now is        6.7 secs

     Computing kpt #:    91  of   361
     total cpu time spent up to now is        6.7 secs

     Computing kpt #:    92  of   361
     total cpu time spent up to now is        6.8 secs

     Computing kpt #:    93  of   361
     total cpu time spent up to now is        6.9 secs

     Computing kpt #:    94  of   361
     total cpu time spent up to now is        6.9 secs

     Computing kpt #:    95  of   361
[...]

          k =-0.1000 0.1000 0.1000 (   597 PWs)   bands (ev):

    -5.8053   8.2916   9.1646   9.1646  15.6495  16.7528  16.7528  16.7662

          k =-0.0929 0.0929 0.0929 (   597 PWs)   bands (ev):

    -5.8318   8.4159   9.1819   9.1819  15.6411  16.7121  16.7234  16.7234

          k =-0.0857 0.0857 0.0857 (   600 PWs)   bands (ev):

    -5.8564   8.5344   9.1982   9.1982  15.6270  16.6656  16.6951  16.6951

          k =-0.0786 0.0786 0.0786 (   600 PWs)   bands (ev):

    -5.8791   8.6466   9.2134   9.2134  15.6076  16.6270  16.6681  16.6681

          k =-0.0714 0.0714 0.0714 (   600 PWs)   bands (ev):

    -5.8997   8.7519   9.2276   9.2276  15.5836  16.5957  16.6427  16.6427

          k =-0.0643 0.0643 0.0643 (   606 PWs)   bands (ev):

    -5.9185   8.8496   9.2405   9.2405  15.5560  16.5710  16.6191  16.6191

          k =-0.0571 0.0571 0.0571 (   606 PWs)   bands (ev):

    -5.9353   8.9393   9.2523   9.2523  15.5264  16.5524  16.5975  16.5975

          k =-0.0500 0.0500 0.0500 (   606 PWs)   bands (ev):

    -5.9501   9.0203   9.2629   9.2629  15.4960  16.5387  16.5780  16.5780

          k =-0.0429 0.0429 0.0429 (   609 PWs)   bands (ev):

    -5.9630   9.0918   9.2721   9.2721  15.4663  16.5287  16.5608  16.5608

          k =-0.0357 0.0357 0.0357 (   609 PWs)   bands (ev):

    -5.9738   9.1536   9.2800   9.2800  15.4387  16.5220  16.5461  16.5461

          k =-0.0286 0.0286 0.0286 (   609 PWs)   bands (ev):

    -5.9827   9.2049   9.2865   9.2865  15.4145  16.5175  16.5339  16.5339

          k =-0.0214 0.0214 0.0214 (   609 PWs)   bands (ev):

    -5.9896   9.2454   9.2916   9.2916  15.3946  16.5146  16.5243  16.5243

          k =-0.0143 0.0143 0.0143 (   609 PWs)   bands (ev):

    -5.9946   9.2746   9.2952   9.2952  15.3798  16.5129  16.5173  16.5173

          k =-0.0071 0.0071 0.0071 (   609 PWs)   bands (ev):

    -5.9976   9.2923   9.2974   9.2974  15.3706  16.5121  16.5132  16.5132

          k = 0.0000 0.0000 0.0000 (   609 PWs)   bands (ev):

    -5.9985   9.2982   9.2982   9.2982  15.3676  16.5118  16.5118  16.5118

          k =-0.0100 0.0025 0.0025 (   609 PWs)   bands (ev):

    -5.9978   9.2949   9.2968   9.2973  15.3698  16.5102  16.5137  16.5137

          k =-0.0200 0.0050 0.0050 (   609 PWs)   bands (ev):

    -5.9956   9.2851   9.2928   9.2949  15.3766  16.5054  16.5193  16.5196

          k =-0.0300 0.0075 0.0075 (   609 PWs)   bands (ev):

    -5.9920   9.2689   9.2862   9.2908  15.3877  16.4975  16.5288  16.5294

          k =-0.0400 0.0100 0.0100 (   609 PWs)   bands (ev):

    -5.9869   9.2463   9.2770   9.2851  15.4031  16.4865  16.5420  16.5430

          k =-0.0500 0.0125 0.0125 (   609 PWs)   bands (ev):

    -5.9804   9.2175   9.2652   9.2778  15.4225  16.4725  16.5591  16.5604

          k =-0.0600 0.0150 0.0150 (   609 PWs)   bands (ev):

    -5.9724   9.1827   9.2508   9.2689  15.4455  16.4556  16.5799  16.5815

          k =-0.0700 0.0175 0.0175 (   609 PWs)   bands (ev):

    -5.9629   9.1421   9.2341   9.2584  15.4717  16.4361  16.6046  16.6063

          k =-0.0800 0.0200 0.0200 (   607 PWs)   bands (ev):

    -5.9520   9.0961   9.2149   9.2463  15.5009  16.4141  16.6331  16.6346

          k =-0.0900 0.0225 0.0225 (   604 PWs)   bands (ev):

    -5.9397   9.0448   9.1934   9.2327  15.5324  16.3898  16.6655  16.6664

          k =-0.1000 0.0250 0.0250 (   604 PWs)   bands (ev):

    -5.9259   8.9884   9.1697   9.2174  15.5657  16.3636  16.7015  16.7017

          k =-0.1100 0.0275 0.0275 (   602 PWs)   bands (ev):

    -5.9106   8.9274   9.1439   9.2005  15.6002  16.3359  16.7399  16.7417

          k =-0.1200 0.0300 0.0300 (   600 PWs)   bands (ev):

    -5.8940   8.8619   9.1161   9.1822  15.6349  16.3072  16.7815  16.7853

          k =-0.1300 0.0325 0.0325 (   600 PWs)   bands (ev):

    -5.8758   8.7921   9.0863   9.1622  15.6690  16.2783  16.8259  16.8324

          k =-0.1400 0.0350 0.0350 (   599 PWs)   bands (ev):

    -5.8563   8.7186   9.0547   9.1408  15.7013  16.2502  16.8731  16.8830

          k =-0.1500 0.0375 0.0375 (   598 PWs)   bands (ev):

    -5.8353   8.6414   9.0215   9.1178  15.7299  16.2245  16.9231  16.9369

          k =-0.1600 0.0400 0.0400 (   598 PWs)   bands (ev):

    -5.8128   8.5609   8.9865   9.0934  15.7528  16.2032  16.9755  16.9937

          k =-0.1700 0.0425 0.0425 (   595 PWs)   bands (ev):

    -5.7890   8.4774   8.9500   9.0675  15.7673  16.1888  17.0303  17.0533

          k =-0.1800 0.0450 0.0450 (   597 PWs)   bands (ev):

    -5.7637   8.3910   8.9121   9.0401  15.7709  16.1836  17.0872  17.1151

          k =-0.1900 0.0475 0.0475 (   595 PWs)   bands (ev):

    -5.7369   8.3021   8.8730   9.0112  15.7622  16.1890  17.1463  17.1789

          k =-0.2000 0.0500 0.0500 (   596 PWs)   bands (ev):

    -5.7088   8.2109   8.8326   8.9808  15.7419  16.2042  17.2072  17.2442

          k =-0.2100 0.0525 0.0525 (   593 PWs)   bands (ev):

    -5.6793   8.1176   8.7912   8.9491  15.7117  16.2275  17.2697  17.3105

          k =-0.2200 0.0550 0.0550 (   593 PWs)   bands (ev):

    -5.6483   8.0223   8.7488   8.9159  15.6739  16.2564  17.3339  17.3773

          k =-0.2300 0.0575 0.0575 (   593 PWs)   bands (ev):

    -5.6159   7.9253   8.7055   8.8813  15.6304  16.2890  17.3993  17.4438

          k =-0.2400 0.0600 0.0600 (   593 PWs)   bands (ev):

    -5.5821   7.8268   8.6614   8.8453  15.5826  16.3238  17.4661  17.5096

          k =-0.2500 0.0625 0.0625 (   593 PWs)   bands (ev):

    -5.5470   7.7268   8.6167   8.8078  15.5315  16.3597  17.5339  17.5738

          k =-0.2600 0.0650 0.0650 (   591 PWs)   bands (ev):

    -5.5104   7.6257   8.5713   8.7691  15.4777  16.3958  17.6026  17.6359

          k =-0.2700 0.0675 0.0675 (   591 PWs)   bands (ev):

    -5.4724   7.5234   8.5255   8.7289  15.4218  16.4315  17.6720  17.6950

          k =-0.2800 0.0700 0.0700 (   591 PWs)   bands (ev):

    -5.4331   7.4202   8.4792   8.6874  15.3641  16.4660  17.7421  17.7506

          k =-0.2900 0.0725 0.0725 (   589 PWs)   bands (ev):

    -5.3923   7.3161   8.4326   8.6445  15.3049  16.4990  17.8021  17.8126

          k =-0.3000 0.0750 0.0750 (   589 PWs)   bands (ev):

    -5.3503   7.2114   8.3857   8.6002  15.2444  16.5297  17.8490  17.8835

          k =-0.3100 0.0775 0.0775 (   593 PWs)   bands (ev):

    -5.3068   7.1059   8.3386   8.5545  15.1826  16.5578  17.8911  17.9545

          k =-0.3200 0.0800 0.0800 (   593 PWs)   bands (ev):

    -5.2620   7.0000   8.2914   8.5075  15.1199  16.5826  17.9286  18.0256

          k =-0.3300 0.0825 0.0825 (   592 PWs)   bands (ev):

    -5.2158   6.8937   8.2442   8.4591  15.0561  16.6036  17.9617  18.0967

          k =-0.3400 0.0850 0.0850 (   592 PWs)   bands (ev):

    -5.1683   6.7872   8.1970   8.4094  14.9915  16.6203  17.9911  18.1675

          k =-0.3500 0.0875 0.0875 (   594 PWs)   bands (ev):

    -5.1195   6.6803   8.1499   8.3584  14.9261  16.6321  18.0176  18.2381

          k =-0.3600 0.0900 0.0900 (   594 PWs)   bands (ev):

    -5.0693   6.5733   8.1029   8.3060  14.8600  16.6387  18.0424  18.3084

          k =-0.3700 0.0925 0.0925 (   596 PWs)   bands (ev):

    -5.0178   6.4662   8.0561   8.2523  14.7931  16.6399  18.0665  18.3781

          k =-0.3800 0.0950 0.0950 (   596 PWs)   bands (ev):

    -4.9650   6.3592   8.0096   8.1972  14.7257  16.6356  18.0911  18.4474

          k =-0.3900 0.0975 0.0975 (   597 PWs)   bands (ev):

    -4.9110   6.2521   7.9634   8.1408  14.6576  16.6259  18.1170  18.5160

          k =-0.4000 0.1000 0.1000 (   593 PWs)   bands (ev):

    -4.8556   6.1453   7.9176   8.0832  14.5891  16.6110  18.1454  18.5839

          k =-0.4100 0.1025 0.1025 (   595 PWs)   bands (ev):

    -4.7989   6.0386   7.8721   8.0241  14.5201  16.5914  18.1762  18.6511

          k =-0.4200 0.1050 0.1050 (   597 PWs)   bands (ev):

    -4.7410   5.9321   7.8270   7.9637  14.4507  16.5675  18.2099  18.7175

          k =-0.4300 0.1075 0.1075 (   599 PWs)   bands (ev):

    -4.6819   5.8260   7.7824   7.9020  14.3809  16.5401  18.2468  18.7831

          k =-0.4400 0.1100 0.1100 (   599 PWs)   bands (ev):

    -4.6215   5.7202   7.7384   7.8390  14.3109  16.5099  18.2869  18.8478

          k =-0.4500 0.1125 0.1125 (   599 PWs)   bands (ev):

    -4.5599   5.6149   7.6950   7.7747  14.2408  16.4775  18.3299  18.9117

          k =-0.4600 0.1150 0.1150 (   601 PWs)   bands (ev):

    -4.4971   5.5099   7.6521   7.7091  14.1705  16.4435  18.3758  18.9746

          k =-0.4700 0.1175 0.1175 (   601 PWs)   bands (ev):

    -4.4331   5.4055   7.6098   7.6422  14.1002  16.4087  18.4243  19.0367

          k =-0.4800 0.1200 0.1200 (   601 PWs)   bands (ev):

    -4.3680   5.3016   7.5683   7.5741  14.0301  16.3735  18.4751  19.0979

          k =-0.4900 0.1225 0.1225 (   602 PWs)   bands (ev):

    -4.3016   5.1982   7.5047   7.5274  13.9601  16.3384  18.5281  19.1583

          k =-0.5000 0.1250 0.1250 (   606 PWs)   bands (ev):

    -4.2342   5.0955   7.4340   7.4872  13.8904  16.3039  18.5829  19.2177

          k =-0.5100 0.1275 0.1275 (   606 PWs)   bands (ev):

    -4.1657   4.9934   7.3623   7.4477  13.8212  16.2703  18.6396  19.2763

          k =-0.5200 0.1300 0.1300 (   604 PWs)   bands (ev):

    -4.0960   4.8921   7.2894   7.4091  13.7525  16.2380  18.6978  19.3342

          k =-0.5300 0.1325 0.1325 (   604 PWs)   bands (ev):

    -4.0253   4.7915   7.2153   7.3712  13.6845  16.2071  18.7574  19.3913

          k =-0.5400 0.1350 0.1350 (   604 PWs)   bands (ev):

    -3.9536   4.6916   7.1402   7.3342  13.6172  16.1779  18.8182  19.4475

          k =-0.5500 0.1375 0.1375 (   606 PWs)   bands (ev):

    -3.8809   4.5926   7.0640   7.2980  13.5508  16.1504  18.8801  19.5030

          k =-0.5600 0.1400 0.1400 (   606 PWs)   bands (ev):

    -3.8071   4.4944   6.9868   7.2626  13.4854  16.1250  18.9429  19.5579

          k =-0.5700 0.1425 0.1425 (   606 PWs)   bands (ev):

    -3.7325   4.3971   6.9085   7.2282  13.4211  16.1016  19.0066  19.6121

          k =-0.5800 0.1450 0.1450 (   606 PWs)   bands (ev):

    -3.6569   4.3007   6.8294   7.1946  13.3579  16.0804  19.0711  19.6656

          k =-0.5900 0.1475 0.1475 (   606 PWs)   bands (ev):

    -3.5804   4.2053   6.7494   7.1620  13.2960  16.0614  19.1362  19.7186

          k =-0.6000 0.1500 0.1500 (   606 PWs)   bands (ev):

    -3.5031   4.1109   6.6686   7.1303  13.2356  16.0446  19.2019  19.7711

          k =-0.6100 0.1525 0.1525 (   608 PWs)   bands (ev):

    -3.4251   4.0175   6.5869   7.0994  13.1765  16.0301  19.2680  19.8228

          k =-0.6200 0.1550 0.1550 (   608 PWs)   bands (ev):

    -3.3462   3.9252   6.5046   7.0695  13.1190  16.0179  19.3347  19.8742

          k =-0.6300 0.1575 0.1575 (   608 PWs)   bands (ev):

    -3.2667   3.8340   6.4216   7.0407  13.0631  16.0079  19.4017  19.9251

          k =-0.6400 0.1600 0.1600 (   608 PWs)   bands (ev):

    -3.1865   3.7440   6.3381   7.0129  13.0089  16.0002  19.4690  19.9757

          k =-0.6500 0.1625 0.1625 (   608 PWs)   bands (ev):

    -3.1057   3.6553   6.2540   6.9860  12.9565  15.9948  19.5366  20.0257

          k =-0.6600 0.1650 0.1650 (   606 PWs)   bands (ev):

    -3.0244   3.5678   6.1695   6.9602  12.9059  15.9917  19.6045  20.0755

          k =-0.6700 0.1675 0.1675 (   606 PWs)   bands (ev):

    -2.9427   3.4817   6.0847   6.9354  12.8571  15.9908  19.6725  20.1248

          k =-0.6800 0.1700 0.1700 (   606 PWs)   bands (ev):

    -2.8606   3.3970   5.9995   6.9116  12.8102  15.9920  19.7408  20.1737

          k =-0.6900 0.1725 0.1725 (   606 PWs)   bands (ev):

    -2.7782   3.3137   5.9141   6.8888  12.7653  15.9955  19.8091  20.2222

          k =-0.7000 0.1750 0.1750 (   604 PWs)   bands (ev):

    -2.6956   3.2319   5.8286   6.8671  12.7223  16.0010  19.8775  20.2703

          k =-0.7100 0.1775 0.1775 (   604 PWs)   bands (ev):

    -2.6129   3.1517   5.7431   6.8465  12.6813  16.0088  19.9460  20.3180

          k =-0.7200 0.1800 0.1800 (   604 PWs)   bands (ev):

    -2.5302   3.0732   5.6576   6.8269  12.6424  16.0186  20.0145  20.3653

          k =-0.7300 0.1825 0.1825 (   607 PWs)   bands (ev):

    -2.4476   2.9965   5.5722   6.8084  12.6054  16.0304  20.0830  20.4120

          k =-0.7400 0.1850 0.1850 (   607 PWs)   bands (ev):

    -2.3653   2.9217   5.4870   6.7909  12.5706  16.0443  20.1514  20.4583

          k =-0.7500 0.1875 0.1875 (   605 PWs)   bands (ev):

    -2.2833   2.8488   5.4022   6.7746  12.5378  16.0602  20.2198  20.5042

          k =-0.7600 0.1900 0.1900 (   606 PWs)   bands (ev):

    -2.2019   2.7780   5.3178   6.7593  12.5071  16.0780  20.2881  20.5494

          k =-0.7700 0.1925 0.1925 (   606 PWs)   bands (ev):

    -2.1212   2.7094   5.2340   6.7451  12.4785  16.0978  20.3563  20.5939

          k =-0.7800 0.1950 0.1950 (   606 PWs)   bands (ev):

    -2.0415   2.6431   5.1507   6.7320  12.4520  16.1194  20.4243  20.6377

          k =-0.7900 0.1975 0.1975 (   606 PWs)   bands (ev):

    -1.9628   2.5793   5.0682   6.7200  12.4277  16.1429  20.4922  20.6806

          k =-0.8000 0.2000 0.2000 (   612 PWs)   bands (ev):

    -1.8854   2.5181   4.9865   6.7090  12.4053  16.1680  20.5598  20.7226

          k =-0.8100 0.2025 0.2025 (   610 PWs)   bands (ev):

    -1.8096   2.4597   4.9059   6.6992  12.3852  16.1951  20.6275  20.7635

          k =-0.8200 0.2050 0.2050 (   614 PWs)   bands (ev):

    -1.7357   2.4043   4.8263   6.6905  12.3671  16.2238  20.6943  20.8031

          k =-0.8300 0.2075 0.2075 (   614 PWs)   bands (ev):

    -1.6638   2.3521   4.7480   6.6828  12.3511  16.2543  20.7610  20.8414

          k =-0.8400 0.2100 0.2100 (   612 PWs)   bands (ev):

    -1.5943   2.3033   4.6710   6.6763  12.3373  16.2866  20.8274  20.8781

          k =-0.8500 0.2125 0.2125 (   612 PWs)   bands (ev):

    -1.5276   2.2581   4.5956   6.6709  12.3256  16.3204  20.8933  20.9131

          k =-0.8600 0.2150 0.2150 (   613 PWs)   bands (ev):

    -1.4638   2.2166   4.5219   6.6666  12.3159  16.3558  20.9460  20.9586

          k =-0.8700 0.2175 0.2175 (   610 PWs)   bands (ev):

    -1.4034   2.1790   4.4501   6.6634  12.3084  16.3929  20.9768  21.0234

          k =-0.8800 0.2200 0.2200 (   610 PWs)   bands (ev):

    -1.3467   2.1456   4.3803   6.6612  12.3029  16.4313  21.0050  21.0875

          k =-0.8900 0.2225 0.2225 (   610 PWs)   bands (ev):

    -1.2941   2.1164   4.3129   6.6602  12.2996  16.4712  21.0304  21.1507

          k =-0.9000 0.2250 0.2250 (   610 PWs)   bands (ev):

    -1.2458   2.0917   4.2480   6.6603  12.2982  16.5124  21.0526  21.2129

          k =-0.9100 0.2275 0.2275 (   610 PWs)   bands (ev):

    -1.2022   2.0713   4.1860   6.6614  12.2990  16.5550  21.0713  21.2738

          k =-0.9200 0.2300 0.2300 (   612 PWs)   bands (ev):

    -1.1634   2.0554   4.1270   6.6636  12.3018  16.5988  21.0861  21.3331

          k =-0.9300 0.2325 0.2325 (   612 PWs)   bands (ev):

    -1.1299   2.0438   4.0716   6.6669  12.3067  16.6440  21.0967  21.3905

          k =-0.9400 0.2350 0.2350 (   610 PWs)   bands (ev):

    -1.1016   2.0363   4.0200   6.6713  12.3136  16.6903  21.1028  21.4452

          k =-0.9500 0.2375 0.2375 (   608 PWs)   bands (ev):

    -1.0787   2.0327   3.9727   6.6768  12.3226  16.7378  21.1038  21.4962

          k =-0.9600 0.2400 0.2400 (   610 PWs)   bands (ev):

    -1.0613   2.0324   3.9301   6.6833  12.3336  16.7862  21.0993  21.5417

          k =-0.9700 0.2425 0.2425 (   612 PWs)   bands (ev):

    -1.0493   2.0350   3.8928   6.6908  12.3466  16.8355  21.0893  21.5795

          k =-0.9800 0.2450 0.2450 (   614 PWs)   bands (ev):

    -1.0426   2.0398   3.8613   6.6994  12.3617  16.8856  21.0730  21.6055

          k =-0.9900 0.2475 0.2475 (   618 PWs)   bands (ev):

    -1.0412   2.0461   3.8362   6.7090  12.3788  16.9366  21.0504  21.6143

          k =-1.0000 0.2500 0.2500 (   618 PWs)   bands (ev):

    -1.0446   2.0532   3.8182   6.7197  12.3979  16.9882  21.0216  21.6007

          k =-1.0000 0.2250 0.2250 (   610 PWs)   bands (ev):

    -0.9997   1.9798   3.9940   6.6125  12.1989  16.4619  21.3404  21.8537

          k =-1.0000 0.2000 0.2000 (   614 PWs)   bands (ev):

    -0.9781   1.9039   4.2257   6.5147  12.0024  15.9360  21.6520  22.0912

          k =-1.0000 0.1750 0.1750 (   608 PWs)   bands (ev):

    -0.9732   1.8290   4.4997   6.4273  11.8058  15.4311  21.9523  22.3124

          k =-1.0000 0.1500 0.1500 (   608 PWs)   bands (ev):

    -0.9793   1.7585   4.8009   6.3505  11.6059  14.9640  22.2342  22.5151

          k =-1.0000 0.1250 0.1250 (   608 PWs)   bands (ev):

    -0.9915   1.6952   5.1132   6.2849  11.4019  14.5501  22.4914  22.6970

          k =-1.0000 0.1000 0.1000 (   608 PWs)   bands (ev):

    -1.0060   1.6412   5.4194   6.2308  11.1967  14.2019  22.7166  22.8540

          k =-1.0000 0.0750 0.0750 (   612 PWs)   bands (ev):

    -1.0199   1.5978   5.6988   6.1884  11.0001  13.9280  22.9021  22.9821

          k =-1.0000 0.0500 0.0500 (   612 PWs)   bands (ev):

    -1.0312   1.5663   5.9277   6.1580  10.8309  13.7329  23.0409  23.0773

          k =-1.0000 0.0250 0.0250 (   616 PWs)   bands (ev):

    -1.0385   1.5471   6.0799   6.1396  10.7138  13.6166  23.1266  23.1361

          k =-1.0000 0.0000 0.0000 (   620 PWs)   bands (ev):

    -1.0410   1.5406   6.1335   6.1335  10.6716  13.5781  23.1557  23.1557

     Writing output data file ./tmp/SiC.save/

     init_run     :      0.47s CPU      0.49s WALL (       1 calls)
     electrons    :     20.85s CPU     21.21s WALL (       1 calls)

     Called by init_run:
     wfcinit      :      0.00s CPU      0.00s WALL (       1 calls)
     wfcinit:atom :      0.04s CPU      0.04s WALL (     361 calls)
     wfcinit:wfcr :      1.18s CPU      1.20s WALL (     361 calls)
     potinit      :      0.03s CPU      0.04s WALL (       1 calls)
     hinit0       :      0.40s CPU      0.40s WALL (       1 calls)

     Called by electrons:
     c_bands      :     20.85s CPU     21.21s WALL (       1 calls)
     v_of_rho     :      0.03s CPU      0.03s WALL (       1 calls)
     v_h          :      0.00s CPU      0.00s WALL (       1 calls)
     v_xc         :      0.03s CPU      0.03s WALL (       1 calls)
     newd         :      0.01s CPU      0.02s WALL (       1 calls)

     Called by c_bands:
     init_us_2    :      0.06s CPU      0.06s WALL (     361 calls)
     cegterg      :     19.40s CPU     19.70s WALL (     406 calls)

     Called by sum_band:

     Called by *egterg:
     h_psi        :     13.87s CPU     14.10s WALL (    6737 calls)
     s_psi        :      0.78s CPU      0.79s WALL (    6737 calls)
     g_psi        :      0.16s CPU      0.16s WALL (    5970 calls)
     cdiaghg      :      1.04s CPU      1.05s WALL (    6331 calls)
     cegterg:over :      1.82s CPU      1.84s WALL (    5970 calls)
     cegterg:upda :      1.32s CPU      1.34s WALL (    5970 calls)
     cegterg:last :      1.19s CPU      1.20s WALL (    1576 calls)

     Called by h_psi:
     h_psi:calbec :      0.78s CPU      0.80s WALL (    6737 calls)
     vloc_psi     :     12.23s CPU     12.42s WALL (    6737 calls)
     add_vuspsi   :      0.79s CPU      0.80s WALL (    6737 calls)

     General routines
     calbec       :      0.77s CPU      0.78s WALL (    6737 calls)
     fft          :      0.01s CPU      0.01s WALL (      13 calls)
     ffts         :      0.00s CPU      0.00s WALL (       1 calls)
     fftw         :     10.68s CPU     10.80s WALL (   78654 calls)
     interpolate  :      0.00s CPU      0.00s WALL (       1 calls)
     davcio       :      0.00s CPU      0.04s WALL (     722 calls)


     PWSCF        :     22.31s CPU     22.84s WALL


   This run was terminated on:  12:34: 8  24May2020            

=------------------------------------------------------------------------------=
   JOB DONE.
=------------------------------------------------------------------------------=
