
     Program PWSCF v.6.5 starts on 23May2020 at 19:37:52 

     This program is part of the open-source Quantum ESPRESSO suite
     for quantum simulation of materials; please cite
         "P. Giannozzi et al., J. Phys.:Condens. Matter 21 395502 (2009);
         "P. Giannozzi et al., J. Phys.:Condens. Matter 29 465901 (2017);
          URL http://www.quantum-espresso.org", 
     in publications or presentations arising from this work. More details at
     http://www.quantum-espresso.org/quote

     Serial version
     Waiting for input...
     Reading input from standard input

     Current dimensions of program PWSCF are:
     Max number of different atomic species (ntypx) = 10
     Max number of k-points (npk) =  40000
     Max angular momentum in pseudopotentials (lmaxx) =  3

     G-vector sticks info
     --------------------
     sticks:   dense  smooth     PW     G-vecs:    dense   smooth      PW
     Sum         745     367    121                13539     4693     893



     bravais-lattice index     =            2
     lattice parameter (alat)  =       8.2354  a.u.
     unit-cell volume          =     139.6365 (a.u.)^3
     number of atoms/cell      =            2
     number of atomic types    =            2
     number of electrons       =         8.00
     number of Kohn-Sham states=            4
     kinetic-energy cutoff     =      40.0000  Ry
     charge density cutoff     =     320.0000  Ry
     convergence threshold     =      1.0E-09
     mixing beta               =       0.7000
     number of iterations used =            8  plain     mixing
     Exchange-correlation= PBE
                           (   1   4   3   4   0   0   0)
     nstep                     =           50


     celldm(1)=   8.235430  celldm(2)=   0.000000  celldm(3)=   0.000000
     celldm(4)=   0.000000  celldm(5)=   0.000000  celldm(6)=   0.000000

     crystal axes: (cart. coord. in units of alat)
               a(1) = (  -0.500000   0.000000   0.500000 )  
               a(2) = (   0.000000   0.500000   0.500000 )  
               a(3) = (  -0.500000   0.500000   0.000000 )  

     reciprocal axes: (cart. coord. in units 2 pi/alat)
               b(1) = ( -1.000000 -1.000000  1.000000 )  
               b(2) = (  1.000000  1.000000  1.000000 )  
               b(3) = ( -1.000000  1.000000 -1.000000 )  


     PseudoPot. # 1 for C  read from file:
     ../../pseudopotentials/C.pbe-n-rrkjus_psl.1.0.0.UPF
     MD5 check sum: 1fdd950c42eb37d8afe3dd2f8d12311e
     Pseudo is Ultrasoft + core correction, Zval =  4.0
     Generated using "atomic" code by A. Dal Corso v.6.3MaX
     Using radial grid of 1073 points,  4 beta functions with: 
                l(1) =   0
                l(2) =   0
                l(3) =   1
                l(4) =   1
     Q(r) pseudized with 0 coefficients 


     PseudoPot. # 2 for Si read from file:
     ../../pseudopotentials/Si.pbe-nl-rrkjus_psl.1.0.0.UPF
     MD5 check sum: 78279d3766ecb5dbdc0623f3e93c9a23
     Pseudo is Ultrasoft + core correction, Zval =  4.0
     Generated using "atomic" code by A. Dal Corso v.6.3
     Using radial grid of 1141 points,  4 beta functions with: 
                l(1) =   0
                l(2) =   0
                l(3) =   1
                l(4) =   1
     Q(r) pseudized with 0 coefficients 


     atomic species   valence    mass     pseudopotential
        C              4.00    12.01100     C ( 1.00)
        Si             4.00    28.09000     Si( 1.00)

     24 Sym. Ops. (no inversion) found


                                    s                        frac. trans.

      isym =  1     identity                                     

 cryst.   s( 1) = (     1          0          0      )
                  (     0          1          0      )
                  (     0          0          1      )

 cart.    s( 1) = (  1.0000000  0.0000000  0.0000000 )
                  (  0.0000000  1.0000000  0.0000000 )
                  (  0.0000000  0.0000000  1.0000000 )


      isym =  2     180 deg rotation - cart. axis [0,0,1]        

 cryst.   s( 2) = (     0          1         -1      )
                  (     1          0         -1      )
                  (     0          0         -1      )

 cart.    s( 2) = ( -1.0000000  0.0000000  0.0000000 )
                  (  0.0000000 -1.0000000  0.0000000 )
                  (  0.0000000  0.0000000  1.0000000 )


      isym =  3     180 deg rotation - cart. axis [0,1,0]        

 cryst.   s( 3) = (    -1          0          0      )
                  (    -1          0          1      )
                  (    -1          1          0      )

 cart.    s( 3) = ( -1.0000000  0.0000000  0.0000000 )
                  (  0.0000000  1.0000000  0.0000000 )
                  (  0.0000000  0.0000000 -1.0000000 )


      isym =  4     180 deg rotation - cart. axis [1,0,0]        

 cryst.   s( 4) = (     0         -1          1      )
                  (     0         -1          0      )
                  (     1         -1          0      )

 cart.    s( 4) = (  1.0000000  0.0000000  0.0000000 )
                  (  0.0000000 -1.0000000  0.0000000 )
                  (  0.0000000  0.0000000 -1.0000000 )


      isym =  5     120 deg rotation - cart. axis [-1,-1,-1]     

 cryst.   s( 5) = (    -1          0          1      )
                  (    -1          1          0      )
                  (    -1          0          0      )

 cart.    s( 5) = (  0.0000000  1.0000000  0.0000000 )
                  (  0.0000000  0.0000000  1.0000000 )
                  (  1.0000000  0.0000000  0.0000000 )


      isym =  6     120 deg rotation - cart. axis [-1,1,1]       

 cryst.   s( 6) = (     0          1          0      )
                  (     0          0          1      )
                  (     1          0          0      )

 cart.    s( 6) = (  0.0000000 -1.0000000  0.0000000 )
                  (  0.0000000  0.0000000  1.0000000 )
                  ( -1.0000000  0.0000000  0.0000000 )


      isym =  7     120 deg rotation - cart. axis [1,1,-1]       

 cryst.   s( 7) = (     1          0         -1      )
                  (     0          0         -1      )
                  (     0          1         -1      )

 cart.    s( 7) = (  0.0000000  1.0000000  0.0000000 )
                  (  0.0000000  0.0000000 -1.0000000 )
                  ( -1.0000000  0.0000000  0.0000000 )


      isym =  8     120 deg rotation - cart. axis [1,-1,1]       

 cryst.   s( 8) = (     0         -1          0      )
                  (     1         -1          0      )
                  (     0         -1          1      )

 cart.    s( 8) = (  0.0000000 -1.0000000  0.0000000 )
                  (  0.0000000  0.0000000 -1.0000000 )
                  (  1.0000000  0.0000000  0.0000000 )


      isym =  9     120 deg rotation - cart. axis [1,1,1]        

 cryst.   s( 9) = (     0          0         -1      )
                  (     0          1         -1      )
                  (     1          0         -1      )

 cart.    s( 9) = (  0.0000000  0.0000000  1.0000000 )
                  (  1.0000000  0.0000000  0.0000000 )
                  (  0.0000000  1.0000000  0.0000000 )


      isym = 10     120 deg rotation - cart. axis [-1,1,-1]      

 cryst.   s(10) = (    -1          1          0      )
                  (    -1          0          0      )
                  (    -1          0          1      )

 cart.    s(10) = (  0.0000000  0.0000000  1.0000000 )
                  ( -1.0000000  0.0000000  0.0000000 )
                  (  0.0000000 -1.0000000  0.0000000 )


      isym = 11     120 deg rotation - cart. axis [1,-1,-1]      

 cryst.   s(11) = (     0          0          1      )
                  (     1          0          0      )
                  (     0          1          0      )

 cart.    s(11) = (  0.0000000  0.0000000 -1.0000000 )
                  ( -1.0000000  0.0000000  0.0000000 )
                  (  0.0000000  1.0000000  0.0000000 )


      isym = 12     120 deg rotation - cart. axis [-1,-1,1]      

 cryst.   s(12) = (     1         -1          0      )
                  (     0         -1          1      )
                  (     0         -1          0      )

 cart.    s(12) = (  0.0000000  0.0000000 -1.0000000 )
                  (  1.0000000  0.0000000  0.0000000 )
                  (  0.0000000 -1.0000000  0.0000000 )


      isym = 13     inv. 180 deg rotation - cart. axis [1,1,0]   

 cryst.   s(13) = (     0          1          0      )
                  (     1          0          0      )
                  (     0          0          1      )

 cart.    s(13) = (  0.0000000 -1.0000000  0.0000000 )
                  ( -1.0000000  0.0000000  0.0000000 )
                  (  0.0000000  0.0000000  1.0000000 )


      isym = 14     inv. 180 deg rotation - cart. axis [1,-1,0]  

 cryst.   s(14) = (     1          0         -1      )
                  (     0          1         -1      )
                  (     0          0         -1      )

 cart.    s(14) = (  0.0000000  1.0000000  0.0000000 )
                  (  1.0000000  0.0000000  0.0000000 )
                  (  0.0000000  0.0000000  1.0000000 )


      isym = 15     inv.  90 deg rotation - cart. axis [0,0,-1]  

 cryst.   s(15) = (     0         -1          0      )
                  (     0         -1          1      )
                  (     1         -1          0      )

 cart.    s(15) = (  0.0000000 -1.0000000  0.0000000 )
                  (  1.0000000  0.0000000  0.0000000 )
                  (  0.0000000  0.0000000 -1.0000000 )


      isym = 16     inv.  90 deg rotation - cart. axis [0,0,1]   

 cryst.   s(16) = (    -1          0          1      )
                  (    -1          0          0      )
                  (    -1          1          0      )

 cart.    s(16) = (  0.0000000  1.0000000  0.0000000 )
                  ( -1.0000000  0.0000000  0.0000000 )
                  (  0.0000000  0.0000000 -1.0000000 )


      isym = 17     inv. 180 deg rotation - cart. axis [1,0,1]   

 cryst.   s(17) = (     1          0          0      )
                  (     0          0          1      )
                  (     0          1          0      )

 cart.    s(17) = (  0.0000000  0.0000000 -1.0000000 )
                  (  0.0000000  1.0000000  0.0000000 )
                  ( -1.0000000  0.0000000  0.0000000 )


      isym = 18     inv. 180 deg rotation - cart. axis [-1,0,1]  

 cryst.   s(18) = (    -1          0          0      )
                  (    -1          1          0      )
                  (    -1          0          1      )

 cart.    s(18) = (  0.0000000  0.0000000  1.0000000 )
                  (  0.0000000  1.0000000  0.0000000 )
                  (  1.0000000  0.0000000  0.0000000 )


      isym = 19     inv.  90 deg rotation - cart. axis [0,1,0]   

 cryst.   s(19) = (     0         -1          1      )
                  (     1         -1          0      )
                  (     0         -1          0      )

 cart.    s(19) = (  0.0000000  0.0000000 -1.0000000 )
                  (  0.0000000 -1.0000000  0.0000000 )
                  (  1.0000000  0.0000000  0.0000000 )


      isym = 20     inv.  90 deg rotation - cart. axis [0,-1,0]  

 cryst.   s(20) = (     0          1         -1      )
                  (     0          0         -1      )
                  (     1          0         -1      )

 cart.    s(20) = (  0.0000000  0.0000000  1.0000000 )
                  (  0.0000000 -1.0000000  0.0000000 )
                  ( -1.0000000  0.0000000  0.0000000 )


      isym = 21     inv. 180 deg rotation - cart. axis [0,1,1]   

 cryst.   s(21) = (     1         -1          0      )
                  (     0         -1          0      )
                  (     0         -1          1      )

 cart.    s(21) = (  1.0000000  0.0000000  0.0000000 )
                  (  0.0000000  0.0000000 -1.0000000 )
                  (  0.0000000 -1.0000000  0.0000000 )


      isym = 22     inv. 180 deg rotation - cart. axis [0,1,-1]  

 cryst.   s(22) = (     0          0          1      )
                  (     0          1          0      )
                  (     1          0          0      )

 cart.    s(22) = (  1.0000000  0.0000000  0.0000000 )
                  (  0.0000000  0.0000000  1.0000000 )
                  (  0.0000000  1.0000000  0.0000000 )


      isym = 23     inv.  90 deg rotation - cart. axis [-1,0,0]  

 cryst.   s(23) = (     0          0         -1      )
                  (     1          0         -1      )
                  (     0          1         -1      )

 cart.    s(23) = ( -1.0000000  0.0000000  0.0000000 )
                  (  0.0000000  0.0000000 -1.0000000 )
                  (  0.0000000  1.0000000  0.0000000 )


      isym = 24     inv.  90 deg rotation - cart. axis [1,0,0]   

 cryst.   s(24) = (    -1          1          0      )
                  (    -1          0          1      )
                  (    -1          0          0      )

 cart.    s(24) = ( -1.0000000  0.0000000  0.0000000 )
                  (  0.0000000  0.0000000  1.0000000 )
                  (  0.0000000 -1.0000000  0.0000000 )


     point group T_d (-43m) 
     there are  5 classes
     the character table:

       E     8C3   3C2   6S4   6s_d 
A_1    1.00  1.00  1.00  1.00  1.00
A_2    1.00  1.00  1.00 -1.00 -1.00
E      2.00 -1.00  2.00  0.00  0.00
T_1    3.00  0.00 -1.00  1.00 -1.00
T_2    3.00  0.00 -1.00 -1.00  1.00

     the symmetry operations in each class and the name of the first element:

     E        1
          identity                                               
     8C3      5    7    8    6   12    9   10   11
          120 deg rotation - cart. axis [-1,-1,-1]               
     3C2      2    3    4
          180 deg rotation - cart. axis [0,0,1]                  
     6S4     15   16   20   19   23   24
          inv.  90 deg rotation - cart. axis [0,0,-1]            
     6s_d    13   14   17   18   21   22
          inv. 180 deg rotation - cart. axis [1,1,0]             

   Cartesian axes

     site n.     atom                  positions (alat units)
         1           C   tau(   1) = (   0.0000000   0.0000000   0.0000000  )
         2           Si  tau(   2) = (  -0.2500000   0.2500000   0.2500000  )

   Crystallographic axes

     site n.     atom                  positions (cryst. coord.)
         1           C   tau(   1) = (  0.0000000  0.0000000  0.0000000  )
         2           Si  tau(   2) = (  0.2500000  0.2500000  0.2500000  )

     number of k points=    16
                       cart. coord. in units 2pi/alat
        k(    1) = (   0.0000000   0.0000000   0.0000000), wk =   0.0092593
        k(    2) = (  -0.1666667   0.1666667  -0.1666667), wk =   0.0740741
        k(    3) = (  -0.3333333   0.3333333  -0.3333333), wk =   0.0740741
        k(    4) = (   0.5000000  -0.5000000   0.5000000), wk =   0.0370370
        k(    5) = (   0.0000000   0.3333333   0.0000000), wk =   0.0555556
        k(    6) = (  -0.1666667   0.5000000  -0.1666667), wk =   0.2222222
        k(    7) = (   0.6666667  -0.3333333   0.6666667), wk =   0.2222222
        k(    8) = (   0.5000000  -0.1666667   0.5000000), wk =   0.2222222
        k(    9) = (   0.3333333   0.0000000   0.3333333), wk =   0.1111111
        k(   10) = (   0.0000000   0.6666667   0.0000000), wk =   0.0555556
        k(   11) = (   0.8333333  -0.1666667   0.8333333), wk =   0.2222222
        k(   12) = (   0.6666667  -0.0000000   0.6666667), wk =   0.1111111
        k(   13) = (   0.0000000  -1.0000000   0.0000000), wk =   0.0277778
        k(   14) = (   0.6666667  -0.3333333   1.0000000), wk =   0.2222222
        k(   15) = (   0.5000000  -0.1666667   0.8333333), wk =   0.2222222
        k(   16) = (  -0.3333333  -1.0000000   0.0000000), wk =   0.1111111

                       cryst. coord.
        k(    1) = (   0.0000000   0.0000000   0.0000000), wk =   0.0092593
        k(    2) = (   0.0000000   0.0000000   0.1666667), wk =   0.0740741
        k(    3) = (   0.0000000   0.0000000   0.3333333), wk =   0.0740741
        k(    4) = (   0.0000000   0.0000000  -0.5000000), wk =   0.0370370
        k(    5) = (   0.0000000   0.1666667   0.1666667), wk =   0.0555556
        k(    6) = (   0.0000000   0.1666667   0.3333333), wk =   0.2222222
        k(    7) = (   0.0000000   0.1666667  -0.5000000), wk =   0.2222222
        k(    8) = (   0.0000000   0.1666667  -0.3333333), wk =   0.2222222
        k(    9) = (   0.0000000   0.1666667  -0.1666667), wk =   0.1111111
        k(   10) = (   0.0000000   0.3333333   0.3333333), wk =   0.0555556
        k(   11) = (   0.0000000   0.3333333  -0.5000000), wk =   0.2222222
        k(   12) = (   0.0000000   0.3333333  -0.3333333), wk =   0.1111111
        k(   13) = (   0.0000000  -0.5000000  -0.5000000), wk =   0.0277778
        k(   14) = (   0.1666667   0.3333333  -0.5000000), wk =   0.2222222
        k(   15) = (   0.1666667   0.3333333  -0.3333333), wk =   0.2222222
        k(   16) = (   0.1666667  -0.5000000  -0.3333333), wk =   0.1111111

     Dense  grid:    13539 G-vectors     FFT dimensions: (  36,  36,  36)

     Smooth grid:     4693 G-vectors     FFT dimensions: (  24,  24,  24)

     Dynamical RAM for                 wfc:       0.04 MB

     Dynamical RAM for     wfc (w. buffer):       0.62 MB

     Dynamical RAM for           str. fact:       0.41 MB

     Dynamical RAM for           local pot:       0.00 MB

     Dynamical RAM for          nlocal pot:       0.15 MB

     Dynamical RAM for                qrad:       2.15 MB

     Dynamical RAM for          rho,v,vnew:       1.69 MB

     Dynamical RAM for               rhoin:       0.56 MB

     Dynamical RAM for            rho*nmix:       3.31 MB

     Dynamical RAM for           G-vectors:       0.81 MB

     Dynamical RAM for          h,s,v(r/c):       0.01 MB

     Dynamical RAM for          <psi|beta>:       0.00 MB

     Dynamical RAM for                 psi:       0.15 MB

     Dynamical RAM for                hpsi:       0.15 MB

     Dynamical RAM for                spsi:       0.15 MB

     Dynamical RAM for      wfcinit/wfcrot:       0.15 MB

     Dynamical RAM for           addusdens:       9.09 MB

     Dynamical RAM for          addusforce:       9.81 MB

     Dynamical RAM for         addusstress:      10.33 MB

     Estimated static dynamical RAM per process >      12.09 MB

     Estimated max dynamical RAM per process >      22.42 MB

     Check: negative core charge=   -0.000004

     Initial potential from superposition of free atoms

     starting charge    7.99940, renormalised to    8.00000
     Starting wfcs are    8 randomized atomic wfcs

     total cpu time spent up to now is        2.8 secs

     Self-consistent Calculation

     iteration #  1     ecut=    40.00 Ry     beta= 0.70
     Davidson diagonalization with overlap
     ethr =  1.00E-02,  avg # of iterations =  2.0

     total cpu time spent up to now is        3.0 secs

     total energy              =     -22.52766757 Ry
     Harris-Foulkes estimate   =     -22.81025391 Ry
     estimated scf accuracy    <       0.42906644 Ry

     iteration #  2     ecut=    40.00 Ry     beta= 0.70
     Davidson diagonalization with overlap
     ethr =  5.36E-03,  avg # of iterations =  2.0

     total cpu time spent up to now is        3.1 secs

     total energy              =     -22.64572867 Ry
     Harris-Foulkes estimate   =     -22.73063346 Ry
     estimated scf accuracy    <       0.16116694 Ry

     iteration #  3     ecut=    40.00 Ry     beta= 0.70
     Davidson diagonalization with overlap
     ethr =  2.01E-03,  avg # of iterations =  2.0

     total cpu time spent up to now is        3.3 secs

     total energy              =     -22.67623201 Ry
     Harris-Foulkes estimate   =     -22.67628811 Ry
     estimated scf accuracy    <       0.00097896 Ry

     iteration #  4     ecut=    40.00 Ry     beta= 0.70
     Davidson diagonalization with overlap
     ethr =  1.22E-05,  avg # of iterations =  3.3

     total cpu time spent up to now is        3.5 secs

     total energy              =     -22.67682945 Ry
     Harris-Foulkes estimate   =     -22.67698054 Ry
     estimated scf accuracy    <       0.00028966 Ry

     iteration #  5     ecut=    40.00 Ry     beta= 0.70
     Davidson diagonalization with overlap
     ethr =  3.62E-06,  avg # of iterations =  2.0

     total cpu time spent up to now is        3.7 secs

     total energy              =     -22.67688634 Ry
     Harris-Foulkes estimate   =     -22.67688597 Ry
     estimated scf accuracy    <       0.00000176 Ry

     iteration #  6     ecut=    40.00 Ry     beta= 0.70
     Davidson diagonalization with overlap
     ethr =  2.21E-08,  avg # of iterations =  2.5

     total cpu time spent up to now is        3.9 secs

     total energy              =     -22.67688710 Ry
     Harris-Foulkes estimate   =     -22.67688734 Ry
     estimated scf accuracy    <       0.00000048 Ry

     iteration #  7     ecut=    40.00 Ry     beta= 0.70
     Davidson diagonalization with overlap
     ethr =  6.03E-09,  avg # of iterations =  2.0

     total cpu time spent up to now is        4.0 secs

     total energy              =     -22.67688720 Ry
     Harris-Foulkes estimate   =     -22.67688721 Ry
     estimated scf accuracy    <          7.5E-09 Ry

     iteration #  8     ecut=    40.00 Ry     beta= 0.70
     Davidson diagonalization with overlap
     ethr =  9.34E-11,  avg # of iterations =  2.3

     total cpu time spent up to now is        4.2 secs

     total energy              =     -22.67688721 Ry
     Harris-Foulkes estimate   =     -22.67688721 Ry
     estimated scf accuracy    <          1.5E-09 Ry

     iteration #  9     ecut=    40.00 Ry     beta= 0.70
     Davidson diagonalization with overlap
     ethr =  1.90E-11,  avg # of iterations =  2.1

     total cpu time spent up to now is        4.4 secs

     End of self-consistent calculation

          k = 0.0000 0.0000 0.0000 (   609 PWs)   bands (ev):

    -5.9350   9.4687   9.4687   9.4687

     occupation numbers 
     1.0000   1.0000   1.0000   1.0000

          k =-0.1667 0.1667-0.1667 (   582 PWs)   bands (ev):

    -5.3957   7.0981   9.1386   9.1386

     occupation numbers 
     1.0000   1.0000   1.0000   1.0000

          k =-0.3333 0.3333-0.3333 (   601 PWs)   bands (ev):

    -3.8689   3.2914   8.6232   8.6232

     occupation numbers 
     1.0000   1.0000   1.0000   1.0000

          k = 0.5000-0.5000 0.5000 (   580 PWs)   bands (ev):

    -2.3653   0.9269   8.4143   8.4143

     occupation numbers 
     1.0000   1.0000   1.0000   1.0000

          k = 0.0000 0.3333 0.0000 (   584 PWs)   bands (ev):

    -5.2156   7.6752   8.3599   8.3599

     occupation numbers 
     1.0000   1.0000   1.0000   1.0000

          k =-0.1667 0.5000-0.1667 (   598 PWs)   bands (ev):

    -4.0080   4.6918   7.6695   7.7243

     occupation numbers 
     1.0000   1.0000   1.0000   1.0000

          k = 0.6667-0.3333 0.6667 (   594 PWs)   bands (ev):

    -2.2237   1.6938   6.6936   7.7147

     occupation numbers 
     1.0000   1.0000   1.0000   1.0000

          k = 0.5000-0.1667 0.5000 (   596 PWs)   bands (ev):

    -2.7981   2.5372   6.2653   8.3153

     occupation numbers 
     1.0000   1.0000   1.0000   1.0000

          k = 0.3333 0.0000 0.3333 (   596 PWs)   bands (ev):

    -4.5206   5.5622   7.0326   9.0903

     occupation numbers 
     1.0000   1.0000   1.0000   1.0000

          k = 0.0000 0.6667 0.0000 (   592 PWs)   bands (ev):

    -3.1600   4.4131   6.8575   6.8575

     occupation numbers 
     1.0000   1.0000   1.0000   1.0000

          k = 0.8333-0.1667 0.8333 (   594 PWs)   bands (ev):

    -1.6035   2.6184   5.1224   6.6876

     occupation numbers 
     1.0000   1.0000   1.0000   1.0000

          k = 0.6667-0.0000 0.6667 (   598 PWs)   bands (ev):

    -1.2992   2.4265   3.8322   7.2929

     occupation numbers 
     1.0000   1.0000   1.0000   1.0000

          k = 0.0000-1.0000 0.0000 (   588 PWs)   bands (ev):

    -0.9130   1.6684   6.2777   6.2777

     occupation numbers 
     1.0000   1.0000   1.0000   1.0000

          k = 0.6667-0.3333 1.0000 (   598 PWs)   bands (ev):

    -2.5849   3.5143   5.3651   7.0476

     occupation numbers 
     1.0000   1.0000   1.0000   1.0000

          k = 0.5000-0.1667 0.8333 (   596 PWs)   bands (ev):

    -1.2820   2.0906   4.7532   6.3459

     occupation numbers 
     1.0000   1.0000   1.0000   1.0000

          k =-0.3333-1.0000 0.0000 (   600 PWs)   bands (ev):

    -0.7433   2.1770   4.9587   5.0820

     occupation numbers 
     1.0000   1.0000   1.0000   1.0000

     highest occupied level (ev):     9.4687

!    total energy              =     -22.67688721 Ry
     Harris-Foulkes estimate   =     -22.67688721 Ry
     estimated scf accuracy    <          2.9E-12 Ry

     The total energy is the sum of the following terms:

     one-electron contribution =       5.65897534 Ry
     hartree contribution      =       2.34044415 Ry
     xc contribution           =      -9.74509318 Ry
     ewald contribution        =     -20.93121351 Ry

     convergence has been achieved in   9 iterations

     Forces acting on atoms (cartesian axes, Ry/au):

     atom    1 type  1   force =     0.00000000    0.00000000   -0.00000000
     atom    2 type  2   force =    -0.00000000   -0.00000000    0.00000000
     The non-local contrib.  to forces
     atom    1 type  1   force =    -0.00000000    0.00000000   -0.00000000
     atom    2 type  2   force =    -0.00000000    0.00000000   -0.00000000
     The ionic contribution  to forces
     atom    1 type  1   force =     0.00000000   -0.00000000   -0.00000000
     atom    2 type  2   force =    -0.00000000    0.00000000    0.00000000
     The local contribution  to forces
     atom    1 type  1   force =     0.00000000    0.00000000    0.00000000
     atom    2 type  2   force =     0.00000000   -0.00000000   -0.00000000
     The core correction contribution to forces
     atom    1 type  1   force =    -0.00000000    0.00000000    0.00000000
     atom    2 type  2   force =    -0.00000000    0.00000000   -0.00000000
     The Hubbard contrib.    to forces
     atom    1 type  1   force =     0.00000000    0.00000000    0.00000000
     atom    2 type  2   force =     0.00000000    0.00000000    0.00000000
     The SCF correction term to forces
     atom    1 type  1   force =    -0.00000000   -0.00000000    0.00000000
     atom    2 type  2   force =    -0.00000000   -0.00000000    0.00000000

     Total force =     0.000000     Total SCF correction =     0.000000


     Computing stress (Cartesian axis) and pressure

          total   stress  (Ry/bohr**3)                   (kbar)     P=       26.72
   0.00018162   0.00000000  -0.00000000           26.72        0.00       -0.00
   0.00000000   0.00018162  -0.00000000            0.00       26.72       -0.00
  -0.00000000  -0.00000000   0.00018162           -0.00       -0.00       26.72

     kinetic stress (kbar)   7533.85      0.00      0.00
                                0.00   7533.85      0.00
                               -0.00      0.00   7533.85

     local   stress (kbar)  -1891.68      0.00      0.00
                                0.00  -1891.68     -0.00
                                0.00     -0.00  -1891.68

     nonloc. stress (kbar)   3215.19      0.00      0.00
                                0.00   3215.19     -0.00
                                0.00     -0.00   3215.19

     hartree stress (kbar)    821.88      0.00     -0.00
                                0.00    821.88      0.00
                               -0.00      0.00    821.88

     exc-cor stress (kbar)   1458.59     -0.00     -0.00
                               -0.00   1458.59     -0.00
                               -0.00     -0.00   1458.59

     corecor stress (kbar)  -3760.87      0.00      0.00
                                0.00  -3760.87     -0.00
                                0.00     -0.00  -3760.87

     ewald   stress (kbar)  -7350.25     -0.00     -0.00
                               -0.00  -7350.25      0.00
                               -0.00      0.00  -7350.25

     hubbard stress (kbar)      0.00      0.00      0.00
                                0.00      0.00      0.00
                                0.00      0.00      0.00

     london  stress (kbar)      0.00      0.00      0.00
                                0.00      0.00      0.00
                                0.00      0.00      0.00

     DFT-D3  stress (kbar)      0.00      0.00      0.00
                                0.00      0.00      0.00
                                0.00      0.00      0.00

     XDM     stress (kbar)      0.00      0.00      0.00
                                0.00      0.00      0.00
                                0.00      0.00      0.00

     dft-nl  stress (kbar)      0.00      0.00      0.00
                                0.00      0.00      0.00
                                0.00      0.00      0.00

     TS-vdW  stress (kbar)      0.00      0.00      0.00
                                0.00      0.00      0.00
                                0.00      0.00      0.00



     BFGS Geometry Optimization

     number of scf cycles    =   1
     number of bfgs steps    =   0

     enthalpy new            =     -22.6768872058 Ry

     new trust radius        =       0.0107310537 bohr
     new conv_thr            =       0.0000000010 Ry

     new unit-cell volume =    141.54720 a.u.^3 (    20.97513 Ang^3 )
     density =      3.17468 g/cm^3

CELL_PARAMETERS (alat=  8.23542970)
  -0.502270299  -0.000000000   0.502270299
  -0.000000000   0.502270299   0.502270299
  -0.502270299   0.502270299  -0.000000000

ATOMIC_POSITIONS (crystal)
C            -0.0000000000        0.0000000000        0.0000000000
Si            0.2500000000        0.2500000000        0.2500000000



     Writing output data file ./tmp/SiC.save/
     NEW-OLD atomic charge density approx. for the potential

     Check: negative core charge=   -0.000004
     extrapolated charge    8.10798, renormalised to    8.00000

     total cpu time spent up to now is        8.3 secs

     Self-consistent Calculation

     iteration #  1     ecut=    40.00 Ry     beta= 0.70
     Davidson diagonalization with overlap
     ethr =  1.00E-06,  avg # of iterations =  3.9

     total cpu time spent up to now is        8.5 secs

     total energy              =     -22.67600932 Ry
     Harris-Foulkes estimate   =     -22.72472262 Ry
     estimated scf accuracy    <       0.00073784 Ry

     iteration #  2     ecut=    40.00 Ry     beta= 0.70
     Davidson diagonalization with overlap
     ethr =  9.22E-06,  avg # of iterations =  3.0

     total cpu time spent up to now is        8.7 secs

     total energy              =     -22.67699334 Ry
     Harris-Foulkes estimate   =     -22.67775480 Ry
     estimated scf accuracy    <       0.00221839 Ry

     iteration #  3     ecut=    40.00 Ry     beta= 0.70
     Davidson diagonalization with overlap
     ethr =  9.22E-06,  avg # of iterations =  2.0

     total cpu time spent up to now is        9.0 secs

     total energy              =     -22.67703419 Ry
     Harris-Foulkes estimate   =     -22.67714677 Ry
     estimated scf accuracy    <       0.00035883 Ry

     iteration #  4     ecut=    40.00 Ry     beta= 0.70
     Davidson diagonalization with overlap
     ethr =  4.49E-06,  avg # of iterations =  1.0

     total cpu time spent up to now is        9.1 secs

     total energy              =     -22.67700600 Ry
     Harris-Foulkes estimate   =     -22.67705469 Ry
     estimated scf accuracy    <       0.00008456 Ry

     iteration #  5     ecut=    40.00 Ry     beta= 0.70
     Davidson diagonalization with overlap
     ethr =  1.06E-06,  avg # of iterations =  2.9

     total cpu time spent up to now is        9.3 secs

     total energy              =     -22.67703429 Ry
     Harris-Foulkes estimate   =     -22.67703937 Ry
     estimated scf accuracy    <       0.00000859 Ry

     iteration #  6     ecut=    40.00 Ry     beta= 0.70
     Davidson diagonalization with overlap
     ethr =  1.07E-07,  avg # of iterations =  2.0

     total cpu time spent up to now is        9.5 secs

     total energy              =     -22.67703660 Ry
     Harris-Foulkes estimate   =     -22.67703699 Ry
     estimated scf accuracy    <       0.00000075 Ry

     iteration #  7     ecut=    40.00 Ry     beta= 0.70
     Davidson diagonalization with overlap
     ethr =  9.32E-09,  avg # of iterations =  2.0

     total cpu time spent up to now is        9.7 secs

     total energy              =     -22.67703680 Ry
     Harris-Foulkes estimate   =     -22.67703678 Ry
     estimated scf accuracy    <          9.9E-09 Ry

     iteration #  8     ecut=    40.00 Ry     beta= 0.70
     Davidson diagonalization with overlap
     ethr =  1.24E-10,  avg # of iterations =  3.1

     total cpu time spent up to now is        9.9 secs

     total energy              =     -22.67703680 Ry
     Harris-Foulkes estimate   =     -22.67703683 Ry
     estimated scf accuracy    <       0.00000015 Ry

     iteration #  9     ecut=    40.00 Ry     beta= 0.70
     Davidson diagonalization with overlap
     ethr =  1.24E-10,  avg # of iterations =  2.0

     total cpu time spent up to now is       10.1 secs

     total energy              =     -22.67703677 Ry
     Harris-Foulkes estimate   =     -22.67703681 Ry
     estimated scf accuracy    <       0.00000008 Ry

     iteration # 10     ecut=    40.00 Ry     beta= 0.70
     Davidson diagonalization with overlap
     ethr =  1.24E-10,  avg # of iterations =  3.0

     total cpu time spent up to now is       10.2 secs

     End of self-consistent calculation

          k = 0.0000 0.0000 0.0000 (   609 PWs)   bands (ev):

    -5.9981   9.2993   9.2993   9.2993

     occupation numbers 
     1.0000   1.0000   1.0000   1.0000

          k =-0.1659 0.1659-0.1659 (   582 PWs)   bands (ev):

    -5.4647   6.9376   8.9701   8.9701

     occupation numbers 
     1.0000   1.0000   1.0000   1.0000

          k =-0.3318 0.3318-0.3318 (   601 PWs)   bands (ev):

    -3.9561   3.1636   8.4563   8.4563

     occupation numbers 
     1.0000   1.0000   1.0000   1.0000

          k = 0.4977-0.4977 0.4977 (   580 PWs)   bands (ev):

    -2.4787   0.8319   8.2481   8.2481

     occupation numbers 
     1.0000   1.0000   1.0000   1.0000

          k = 0.0000 0.3318 0.0000 (   584 PWs)   bands (ev):

    -5.2865   7.4994   8.1992   8.1992

     occupation numbers 
     1.0000   1.0000   1.0000   1.0000

          k =-0.1659 0.4977-0.1659 (   598 PWs)   bands (ev):

    -4.0927   4.5447   7.5054   7.5680

     occupation numbers 
     1.0000   1.0000   1.0000   1.0000

          k = 0.6637-0.3318 0.6637 (   594 PWs)   bands (ev):

    -2.3354   1.5845   6.5372   7.5567

     occupation numbers 
     1.0000   1.0000   1.0000   1.0000

          k = 0.4977-0.1659 0.4977 (   596 PWs)   bands (ev):

    -2.8997   2.4156   6.1161   8.1505

     occupation numbers 
     1.0000   1.0000   1.0000   1.0000

          k = 0.3318 0.0000 0.3318 (   596 PWs)   bands (ev):

    -4.5994   5.4074   6.8821   8.9192

     occupation numbers 
     1.0000   1.0000   1.0000   1.0000

          k = 0.0000 0.6637 0.0000 (   592 PWs)   bands (ev):

    -3.2542   4.2526   6.7096   6.7096

     occupation numbers 
     1.0000   1.0000   1.0000   1.0000

          k = 0.8296-0.1659 0.8296 (   594 PWs)   bands (ev):

    -1.7197   2.4769   4.9968   6.5405

     occupation numbers 
     1.0000   1.0000   1.0000   1.0000

          k = 0.6637 0.0000 0.6637 (   598 PWs)   bands (ev):

    -1.4237   2.2892   3.7254   7.1390

     occupation numbers 
     1.0000   1.0000   1.0000   1.0000

          k = 0.0000-0.9955 0.0000 (   588 PWs)   bands (ev):

    -1.0401   1.5418   6.1348   6.1348

     occupation numbers 
     1.0000   1.0000   1.0000   1.0000

          k = 0.6637-0.3318 0.9955 (   598 PWs)   bands (ev):

    -2.6877   3.3682   5.2316   6.8987

     occupation numbers 
     1.0000   1.0000   1.0000   1.0000

          k = 0.4977-0.1659 0.8296 (   596 PWs)   bands (ev):

    -1.4074   1.9678   4.6216   6.2078

     occupation numbers 
     1.0000   1.0000   1.0000   1.0000

          k =-0.3318-0.9955-0.0000 (   600 PWs)   bands (ev):

    -0.8751   2.0371   4.8379   4.9597

     occupation numbers 
     1.0000   1.0000   1.0000   1.0000

     highest occupied level (ev):     9.2993

!    total energy              =     -22.67703678 Ry
     Harris-Foulkes estimate   =     -22.67703678 Ry
     estimated scf accuracy    <          4.1E-11 Ry

     The total energy is the sum of the following terms:

     one-electron contribution =       5.53330888 Ry
     hartree contribution      =       2.35039056 Ry
     xc contribution           =      -9.72413332 Ry
     ewald contribution        =     -20.83660289 Ry

     convergence has been achieved in  10 iterations

     Forces acting on atoms (cartesian axes, Ry/au):

     atom    1 type  1   force =     0.00000000    0.00000000   -0.00000000
     atom    2 type  2   force =     0.00000000    0.00000000    0.00000000
     The non-local contrib.  to forces
     atom    1 type  1   force =    -0.00000000    0.00000000   -0.00000000
     atom    2 type  2   force =    -0.00000000    0.00000000   -0.00000000
     The ionic contribution  to forces
     atom    1 type  1   force =    -0.00000000    0.00000000    0.00000000
     atom    2 type  2   force =     0.00000000   -0.00000000   -0.00000000
     The local contribution  to forces
     atom    1 type  1   force =    -0.00000000   -0.00000000    0.00000000
     atom    2 type  2   force =    -0.00000000    0.00000000    0.00000000
     The core correction contribution to forces
     atom    1 type  1   force =     0.00000000   -0.00000000    0.00000000
     atom    2 type  2   force =    -0.00000000   -0.00000000    0.00000000
     The Hubbard contrib.    to forces
     atom    1 type  1   force =     0.00000000    0.00000000    0.00000000
     atom    2 type  2   force =     0.00000000    0.00000000    0.00000000
     The SCF correction term to forces
     atom    1 type  1   force =    -0.00000000   -0.00000000    0.00000000
     atom    2 type  2   force =    -0.00000000    0.00000000    0.00000000

     Total force =     0.000000     Total SCF correction =     0.000000


     Computing stress (Cartesian axis) and pressure

          total   stress  (Ry/bohr**3)                   (kbar)     P=       -3.36
  -0.00002285  -0.00000000   0.00000000           -3.36       -0.00        0.00
  -0.00000000  -0.00002285   0.00000000           -0.00       -3.36        0.00
   0.00000000   0.00000000  -0.00002285            0.00        0.00       -3.36

     kinetic stress (kbar)   7391.10      0.00      0.00
                                0.00   7391.10      0.00
                                0.00      0.00   7391.10

     local   stress (kbar)  -1891.28     -0.00     -0.00
                               -0.00  -1891.28      0.00
                               -0.00      0.00  -1891.28

     nonloc. stress (kbar)   3164.38      0.00     -0.00
                                0.00   3164.38      0.00
                               -0.00     -0.00   3164.38

     hartree stress (kbar)    814.23      0.00     -0.00
                                0.00    814.23      0.00
                               -0.00      0.00    814.23

     exc-cor stress (kbar)   1444.48     -0.00      0.00
                               -0.00   1444.48     -0.00
                                0.00     -0.00   1444.48

     corecor stress (kbar)  -3708.02     -0.00     -0.00
                               -0.00  -3708.02      0.00
                               -0.00      0.00  -3708.02

     ewald   stress (kbar)  -7218.25      0.00      0.00
                                0.00  -7218.25     -0.00
                                0.00     -0.00  -7218.25

     hubbard stress (kbar)      0.00      0.00      0.00
                                0.00      0.00      0.00
                                0.00      0.00      0.00

     london  stress (kbar)      0.00      0.00      0.00
                                0.00      0.00      0.00
                                0.00      0.00      0.00

     DFT-D3  stress (kbar)      0.00      0.00      0.00
                                0.00      0.00      0.00
                                0.00      0.00      0.00

     XDM     stress (kbar)      0.00      0.00      0.00
                                0.00      0.00      0.00
                                0.00      0.00      0.00

     dft-nl  stress (kbar)      0.00      0.00      0.00
                                0.00      0.00      0.00
                                0.00      0.00      0.00

     TS-vdW  stress (kbar)      0.00      0.00      0.00
                                0.00      0.00      0.00
                                0.00      0.00      0.00



     number of scf cycles    =   2
     number of bfgs steps    =   1

     enthalpy old            =     -22.6768872058 Ry
     enthalpy new            =     -22.6770367808 Ry

     CASE: enthalpy_new < enthalpy_old

     new trust radius        =       0.0012118382 bohr
     new conv_thr            =            1.0E-11 Ry

     new unit-cell volume =    141.33104 a.u.^3 (    20.94310 Ang^3 )
     density =      3.17953 g/cm^3

CELL_PARAMETERS (alat=  8.23542970)
  -0.502014498  -0.000000000   0.502014498
  -0.000000000   0.502014498   0.502014498
  -0.502014498   0.502014498  -0.000000000

ATOMIC_POSITIONS (crystal)
C            -0.0000000000       -0.0000000000        0.0000000000
Si            0.2500000000        0.2500000000        0.2500000000



     Writing output data file ./tmp/SiC.save/
     NEW-OLD atomic charge density approx. for the potential

     Check: negative core charge=   -0.000004
     extrapolated charge    7.98777, renormalised to    8.00000

     total cpu time spent up to now is       14.0 secs

     Self-consistent Calculation

     iteration #  1     ecut=    40.00 Ry     beta= 0.70
     Davidson diagonalization with overlap
     ethr =  1.00E-06,  avg # of iterations =  2.0

     total cpu time spent up to now is       14.2 secs

     total energy              =     -22.67702717 Ry
     Harris-Foulkes estimate   =     -22.67166725 Ry
     estimated scf accuracy    <       0.00000859 Ry

     iteration #  2     ecut=    40.00 Ry     beta= 0.70
     Davidson diagonalization with overlap
     ethr =  1.07E-07,  avg # of iterations =  3.1

     total cpu time spent up to now is       14.4 secs

     total energy              =     -22.67703881 Ry
     Harris-Foulkes estimate   =     -22.67704754 Ry
     estimated scf accuracy    <       0.00002539 Ry

     iteration #  3     ecut=    40.00 Ry     beta= 0.70
     Davidson diagonalization with overlap
     ethr =  1.07E-07,  avg # of iterations =  2.0

     total cpu time spent up to now is       14.5 secs

     total energy              =     -22.67703926 Ry
     Harris-Foulkes estimate   =     -22.67704056 Ry
     estimated scf accuracy    <       0.00000409 Ry

     iteration #  4     ecut=    40.00 Ry     beta= 0.70
     Davidson diagonalization with overlap
     ethr =  5.11E-08,  avg # of iterations =  1.0

     total cpu time spent up to now is       14.7 secs

     total energy              =     -22.67703890 Ry
     Harris-Foulkes estimate   =     -22.67703949 Ry
     estimated scf accuracy    <       0.00000097 Ry

     iteration #  5     ecut=    40.00 Ry     beta= 0.70
     Davidson diagonalization with overlap
     ethr =  1.21E-08,  avg # of iterations =  2.9

     total cpu time spent up to now is       14.9 secs

     total energy              =     -22.67703926 Ry
     Harris-Foulkes estimate   =     -22.67703935 Ry
     estimated scf accuracy    <       0.00000018 Ry

     iteration #  6     ecut=    40.00 Ry     beta= 0.70
     Davidson diagonalization with overlap
     ethr =  2.25E-09,  avg # of iterations =  2.0

     total cpu time spent up to now is       15.1 secs

     total energy              =     -22.67703929 Ry
     Harris-Foulkes estimate   =     -22.67703929 Ry
     estimated scf accuracy    <          1.8E-09 Ry

     iteration #  7     ecut=    40.00 Ry     beta= 0.70
     Davidson diagonalization with overlap
     ethr =  2.31E-11,  avg # of iterations =  2.4

     total cpu time spent up to now is       15.2 secs

     total energy              =     -22.67703929 Ry
     Harris-Foulkes estimate   =     -22.67703929 Ry
     estimated scf accuracy    <          5.0E-10 Ry

     iteration #  8     ecut=    40.00 Ry     beta= 0.70
     Davidson diagonalization with overlap
     ethr =  6.28E-12,  avg # of iterations =  2.0

     total cpu time spent up to now is       15.4 secs

     total energy              =     -22.67703929 Ry
     Harris-Foulkes estimate   =     -22.67703929 Ry
     estimated scf accuracy    <          1.7E-09 Ry

     iteration #  9     ecut=    40.00 Ry     beta= 0.70
     Davidson diagonalization with overlap
     ethr =  6.28E-12,  avg # of iterations =  1.0

     total cpu time spent up to now is       15.6 secs

     total energy              =     -22.67703929 Ry
     Harris-Foulkes estimate   =     -22.67703929 Ry
     estimated scf accuracy    <          8.7E-10 Ry

     iteration # 10     ecut=    40.00 Ry     beta= 0.70
     Davidson diagonalization with overlap
     ethr =  6.28E-12,  avg # of iterations =  2.0

     total cpu time spent up to now is       15.7 secs

     total energy              =     -22.67703929 Ry
     Harris-Foulkes estimate   =     -22.67703929 Ry
     estimated scf accuracy    <          9.0E-11 Ry

     iteration # 11     ecut=    40.00 Ry     beta= 0.70
     Davidson diagonalization with overlap
     ethr =  1.13E-12,  avg # of iterations =  2.0

     total cpu time spent up to now is       15.9 secs

     End of self-consistent calculation

          k = 0.0000 0.0000 0.0000 (   609 PWs)   bands (ev):

    -5.9911   9.3182   9.3182   9.3182

     occupation numbers 
     1.0000   1.0000   1.0000   1.0000

          k =-0.1660 0.1660-0.1660 (   582 PWs)   bands (ev):

    -5.4570   6.9555   8.9889   8.9889

     occupation numbers 
     1.0000   1.0000   1.0000   1.0000

          k =-0.3320 0.3320-0.3320 (   601 PWs)   bands (ev):

    -3.9463   3.1779   8.4749   8.4749

     occupation numbers 
     1.0000   1.0000   1.0000   1.0000

          k = 0.4980-0.4980 0.4980 (   580 PWs)   bands (ev):

    -2.4660   0.8426   8.2667   8.2667

     occupation numbers 
     1.0000   1.0000   1.0000   1.0000

          k = 0.0000 0.3320 0.0000 (   584 PWs)   bands (ev):

    -5.2785   7.5191   8.2171   8.2171

     occupation numbers 
     1.0000   1.0000   1.0000   1.0000

          k =-0.1660 0.4980-0.1660 (   598 PWs)   bands (ev):

    -4.0832   4.5612   7.5238   7.5855

     occupation numbers 
     1.0000   1.0000   1.0000   1.0000

          k = 0.6640-0.3320 0.6640 (   594 PWs)   bands (ev):

    -2.3229   1.5967   6.5547   7.5744

     occupation numbers 
     1.0000   1.0000   1.0000   1.0000

          k = 0.4980-0.1660 0.4980 (   596 PWs)   bands (ev):

    -2.8883   2.4292   6.1327   8.1689

     occupation numbers 
     1.0000   1.0000   1.0000   1.0000

          k = 0.3320 0.0000 0.3320 (   596 PWs)   bands (ev):

    -4.5906   5.4248   6.8990   8.9384

     occupation numbers 
     1.0000   1.0000   1.0000   1.0000

          k = 0.0000 0.6640 0.0000 (   592 PWs)   bands (ev):

    -3.2437   4.2706   6.7261   6.7261

     occupation numbers 
     1.0000   1.0000   1.0000   1.0000

          k = 0.8300-0.1660 0.8300 (   594 PWs)   bands (ev):

    -1.7067   2.4927   5.0109   6.5570

     occupation numbers 
     1.0000   1.0000   1.0000   1.0000

          k = 0.6640 0.0000 0.6640 (   598 PWs)   bands (ev):

    -1.4098   2.3046   3.7373   7.1562

     occupation numbers 
     1.0000   1.0000   1.0000   1.0000

          k = 0.0000-0.9960 0.0000 (   588 PWs)   bands (ev):

    -1.0259   1.5559   6.1508   6.1508

     occupation numbers 
     1.0000   1.0000   1.0000   1.0000

          k = 0.6640-0.3320 0.9960 (   598 PWs)   bands (ev):

    -2.6762   3.3846   5.2465   6.9153

     occupation numbers 
     1.0000   1.0000   1.0000   1.0000

          k = 0.4980-0.1660 0.8300 (   596 PWs)   bands (ev):

    -1.3934   1.9816   4.6363   6.2232

     occupation numbers 
     1.0000   1.0000   1.0000   1.0000

          k =-0.3320-0.9960 0.0000 (   600 PWs)   bands (ev):

    -0.8604   2.0528   4.8514   4.9734

     occupation numbers 
     1.0000   1.0000   1.0000   1.0000

     highest occupied level (ev):     9.3182

!    total energy              =     -22.67703929 Ry
     Harris-Foulkes estimate   =     -22.67703929 Ry
     estimated scf accuracy    <          1.0E-12 Ry

     The total energy is the sum of the following terms:

     one-electron contribution =       5.54738699 Ry
     hartree contribution      =       2.34927737 Ry
     xc contribution           =      -9.72648350 Ry
     ewald contribution        =     -20.84722014 Ry

     convergence has been achieved in  11 iterations

     Forces acting on atoms (cartesian axes, Ry/au):

     atom    1 type  1   force =     0.00000000    0.00000000    0.00000000
     atom    2 type  2   force =     0.00000000    0.00000000   -0.00000000
     The non-local contrib.  to forces
     atom    1 type  1   force =     0.00000000   -0.00000000    0.00000000
     atom    2 type  2   force =     0.00000000    0.00000000    0.00000000
     The ionic contribution  to forces
     atom    1 type  1   force =    -0.00000000    0.00000000    0.00000000
     atom    2 type  2   force =     0.00000000   -0.00000000   -0.00000000
     The local contribution  to forces
     atom    1 type  1   force =     0.00000000    0.00000000   -0.00000000
     atom    2 type  2   force =    -0.00000000    0.00000000    0.00000000
     The core correction contribution to forces
     atom    1 type  1   force =    -0.00000000    0.00000000    0.00000000
     atom    2 type  2   force =    -0.00000000    0.00000000    0.00000000
     The Hubbard contrib.    to forces
     atom    1 type  1   force =     0.00000000    0.00000000    0.00000000
     atom    2 type  2   force =     0.00000000    0.00000000    0.00000000
     The SCF correction term to forces
     atom    1 type  1   force =     0.00000000   -0.00000000   -0.00000000
     atom    2 type  2   force =    -0.00000000   -0.00000000    0.00000000

     Total force =     0.000000     Total SCF correction =     0.000000


     Computing stress (Cartesian axis) and pressure

          total   stress  (Ry/bohr**3)                   (kbar)     P=       -0.06
  -0.00000038  -0.00000000   0.00000000           -0.06       -0.00        0.00
  -0.00000000  -0.00000038   0.00000000           -0.00       -0.06        0.00
   0.00000000   0.00000000  -0.00000038            0.00        0.00       -0.06

     kinetic stress (kbar)   7407.01     -0.00     -0.00
                               -0.00   7407.01      0.00
                               -0.00     -0.00   7407.01

     local   stress (kbar)  -1891.34     -0.00     -0.00
                               -0.00  -1891.34      0.00
                               -0.00      0.00  -1891.34

     nonloc. stress (kbar)   3170.03      0.00     -0.00
                                0.00   3170.03     -0.00
                               -0.00      0.00   3170.03

     hartree stress (kbar)    815.09     -0.00     -0.00
                               -0.00    815.09      0.00
                               -0.00      0.00    815.09

     exc-cor stress (kbar)   1446.06      0.00      0.00
                                0.00   1446.06      0.00
                                0.00      0.00   1446.06

     corecor stress (kbar)  -3713.93     -0.00     -0.00
                               -0.00  -3713.93      0.00
                               -0.00      0.00  -3713.93

     ewald   stress (kbar)  -7232.97      0.00      0.00
                                0.00  -7232.97     -0.00
                                0.00     -0.00  -7232.97

     hubbard stress (kbar)      0.00      0.00      0.00
                                0.00      0.00      0.00
                                0.00      0.00      0.00

     london  stress (kbar)      0.00      0.00      0.00
                                0.00      0.00      0.00
                                0.00      0.00      0.00

     DFT-D3  stress (kbar)      0.00      0.00      0.00
                                0.00      0.00      0.00
                                0.00      0.00      0.00

     XDM     stress (kbar)      0.00      0.00      0.00
                                0.00      0.00      0.00
                                0.00      0.00      0.00

     dft-nl  stress (kbar)      0.00      0.00      0.00
                                0.00      0.00      0.00
                                0.00      0.00      0.00

     TS-vdW  stress (kbar)      0.00      0.00      0.00
                                0.00      0.00      0.00
                                0.00      0.00      0.00



     bfgs converged in   3 scf cycles and   2 bfgs steps
     (criteria: energy <  1.0E-04 Ry, force <  1.0E-03Ry/Bohr, cell <  5.0E-01kbar)

     End of BFGS Geometry Optimization

     Final enthalpy =     -22.6770392941 Ry
Begin final coordinates
     new unit-cell volume =    141.33104 a.u.^3 (    20.94310 Ang^3 )
     density =      3.17953 g/cm^3

CELL_PARAMETERS (alat=  8.23542970)
  -0.502014498  -0.000000000   0.502014498
  -0.000000000   0.502014498   0.502014498
  -0.502014498   0.502014498  -0.000000000

ATOMIC_POSITIONS (crystal)
C            -0.0000000000       -0.0000000000        0.0000000000
Si            0.2500000000        0.2500000000        0.2500000000
End final coordinates



     Writing output data file ./tmp/SiC.save/

     Final scf calculation at the relaxed structure.
     The G-vectors are recalculated for the final unit cell
     Results may differ from those at the preceding step.

     G-vector sticks info
     --------------------
     sticks:   dense  smooth     PW     G-vecs:    dense   smooth      PW
     Sum         745     379    121                13635     4909     941



     bravais-lattice index     =            2
     lattice parameter (alat)  =       8.2354  a.u.
     unit-cell volume          =     141.3310 (a.u.)^3
     number of atoms/cell      =            2
     number of atomic types    =            2
     number of electrons       =         8.00
     number of Kohn-Sham states=            4
     kinetic-energy cutoff     =      40.0000  Ry
     charge density cutoff     =     320.0000  Ry
     convergence threshold     =      1.0E-11
     mixing beta               =       0.7000
     number of iterations used =            8  plain     mixing
     Exchange-correlation= PBE
                           (   1   4   3   4   0   0   0)

     celldm(1)=   8.235430  celldm(2)=   0.000000  celldm(3)=   0.000000
     celldm(4)=   0.000000  celldm(5)=   0.000000  celldm(6)=   0.000000

     crystal axes: (cart. coord. in units of alat)
               a(1) = (  -0.502014  -0.000000   0.502014 )  
               a(2) = (  -0.000000   0.502014   0.502014 )  
               a(3) = (  -0.502014   0.502014  -0.000000 )  

     reciprocal axes: (cart. coord. in units 2 pi/alat)
               b(1) = ( -0.995987 -0.995987  0.995987 )  
               b(2) = (  0.995987  0.995987  0.995987 )  
               b(3) = ( -0.995987  0.995987 -0.995987 )  


     PseudoPot. # 1 for C  read from file:
     ../../pseudopotentials/C.pbe-n-rrkjus_psl.1.0.0.UPF
     MD5 check sum: 1fdd950c42eb37d8afe3dd2f8d12311e
     Pseudo is Ultrasoft + core correction, Zval =  4.0
     Generated using "atomic" code by A. Dal Corso v.6.3MaX
     Using radial grid of 1073 points,  4 beta functions with: 
                l(1) =   0
                l(2) =   0
                l(3) =   1
                l(4) =   1
     Q(r) pseudized with 0 coefficients 


     PseudoPot. # 2 for Si read from file:
     ../../pseudopotentials/Si.pbe-nl-rrkjus_psl.1.0.0.UPF
     MD5 check sum: 78279d3766ecb5dbdc0623f3e93c9a23
     Pseudo is Ultrasoft + core correction, Zval =  4.0
     Generated using "atomic" code by A. Dal Corso v.6.3
     Using radial grid of 1141 points,  4 beta functions with: 
                l(1) =   0
                l(2) =   0
                l(3) =   1
                l(4) =   1
     Q(r) pseudized with 0 coefficients 


     atomic species   valence    mass     pseudopotential
        C              4.00    12.01100     C ( 1.00)
        Si             4.00    28.09000     Si( 1.00)

     24 Sym. Ops. (no inversion) found


                                    s                        frac. trans.

      isym =  1     identity                                     

 cryst.   s( 1) = (     1          0          0      )
                  (     0          1          0      )
                  (     0          0          1      )

 cart.    s( 1) = (  1.0000000  0.0000000  0.0000000 )
                  (  0.0000000  1.0000000  0.0000000 )
                  (  0.0000000  0.0000000  1.0000000 )


      isym =  2     180 deg rotation - cart. axis [0,0,1]        

 cryst.   s( 2) = (     0          1         -1      )
                  (     1          0         -1      )
                  (     0          0         -1      )

 cart.    s( 2) = ( -1.0000000  0.0000000  0.0000000 )
                  (  0.0000000 -1.0000000  0.0000000 )
                  (  0.0000000  0.0000000  1.0000000 )


      isym =  3     180 deg rotation - cart. axis [0,1,0]        

 cryst.   s( 3) = (    -1          0          0      )
                  (    -1          0          1      )
                  (    -1          1          0      )

 cart.    s( 3) = ( -1.0000000  0.0000000  0.0000000 )
                  (  0.0000000  1.0000000  0.0000000 )
                  (  0.0000000  0.0000000 -1.0000000 )


      isym =  4     180 deg rotation - cart. axis [1,0,0]        

 cryst.   s( 4) = (     0         -1          1      )
                  (     0         -1          0      )
                  (     1         -1          0      )

 cart.    s( 4) = (  1.0000000  0.0000000  0.0000000 )
                  (  0.0000000 -1.0000000  0.0000000 )
                  (  0.0000000  0.0000000 -1.0000000 )


      isym =  5     120 deg rotation - cart. axis [-1,-1,-1]     

 cryst.   s( 5) = (    -1          0          1      )
                  (    -1          1          0      )
                  (    -1          0          0      )

 cart.    s( 5) = (  0.0000000  1.0000000  0.0000000 )
                  (  0.0000000  0.0000000  1.0000000 )
                  (  1.0000000  0.0000000  0.0000000 )


      isym =  6     120 deg rotation - cart. axis [-1,1,1]       

 cryst.   s( 6) = (     0          1          0      )
                  (     0          0          1      )
                  (     1          0          0      )

 cart.    s( 6) = (  0.0000000 -1.0000000  0.0000000 )
                  (  0.0000000  0.0000000  1.0000000 )
                  ( -1.0000000  0.0000000  0.0000000 )


      isym =  7     120 deg rotation - cart. axis [1,1,-1]       

 cryst.   s( 7) = (     1          0         -1      )
                  (     0          0         -1      )
                  (     0          1         -1      )

 cart.    s( 7) = (  0.0000000  1.0000000  0.0000000 )
                  (  0.0000000  0.0000000 -1.0000000 )
                  ( -1.0000000  0.0000000  0.0000000 )


      isym =  8     120 deg rotation - cart. axis [1,-1,1]       

 cryst.   s( 8) = (     0         -1          0      )
                  (     1         -1          0      )
                  (     0         -1          1      )

 cart.    s( 8) = (  0.0000000 -1.0000000  0.0000000 )
                  (  0.0000000  0.0000000 -1.0000000 )
                  (  1.0000000  0.0000000  0.0000000 )


      isym =  9     120 deg rotation - cart. axis [1,1,1]        

 cryst.   s( 9) = (     0          0         -1      )
                  (     0          1         -1      )
                  (     1          0         -1      )

 cart.    s( 9) = (  0.0000000  0.0000000  1.0000000 )
                  (  1.0000000  0.0000000  0.0000000 )
                  (  0.0000000  1.0000000  0.0000000 )


      isym = 10     120 deg rotation - cart. axis [-1,1,-1]      

 cryst.   s(10) = (    -1          1          0      )
                  (    -1          0          0      )
                  (    -1          0          1      )

 cart.    s(10) = (  0.0000000  0.0000000  1.0000000 )
                  ( -1.0000000  0.0000000  0.0000000 )
                  (  0.0000000 -1.0000000  0.0000000 )


      isym = 11     120 deg rotation - cart. axis [1,-1,-1]      

 cryst.   s(11) = (     0          0          1      )
                  (     1          0          0      )
                  (     0          1          0      )

 cart.    s(11) = (  0.0000000  0.0000000 -1.0000000 )
                  ( -1.0000000  0.0000000  0.0000000 )
                  (  0.0000000  1.0000000  0.0000000 )


      isym = 12     120 deg rotation - cart. axis [-1,-1,1]      

 cryst.   s(12) = (     1         -1          0      )
                  (     0         -1          1      )
                  (     0         -1          0      )

 cart.    s(12) = (  0.0000000  0.0000000 -1.0000000 )
                  (  1.0000000  0.0000000  0.0000000 )
                  (  0.0000000 -1.0000000  0.0000000 )


      isym = 13     inv. 180 deg rotation - cart. axis [1,1,0]   

 cryst.   s(13) = (     0          1          0      )
                  (     1          0          0      )
                  (     0          0          1      )

 cart.    s(13) = (  0.0000000 -1.0000000  0.0000000 )
                  ( -1.0000000  0.0000000  0.0000000 )
                  (  0.0000000  0.0000000  1.0000000 )


      isym = 14     inv. 180 deg rotation - cart. axis [1,-1,0]  

 cryst.   s(14) = (     1          0         -1      )
                  (     0          1         -1      )
                  (     0          0         -1      )

 cart.    s(14) = (  0.0000000  1.0000000  0.0000000 )
                  (  1.0000000  0.0000000  0.0000000 )
                  (  0.0000000  0.0000000  1.0000000 )


      isym = 15     inv.  90 deg rotation - cart. axis [0,0,-1]  

 cryst.   s(15) = (     0         -1          0      )
                  (     0         -1          1      )
                  (     1         -1          0      )

 cart.    s(15) = (  0.0000000 -1.0000000  0.0000000 )
                  (  1.0000000  0.0000000  0.0000000 )
                  (  0.0000000  0.0000000 -1.0000000 )


      isym = 16     inv.  90 deg rotation - cart. axis [0,0,1]   

 cryst.   s(16) = (    -1          0          1      )
                  (    -1          0          0      )
                  (    -1          1          0      )

 cart.    s(16) = (  0.0000000  1.0000000  0.0000000 )
                  ( -1.0000000  0.0000000  0.0000000 )
                  (  0.0000000  0.0000000 -1.0000000 )


      isym = 17     inv. 180 deg rotation - cart. axis [1,0,1]   

 cryst.   s(17) = (     1          0          0      )
                  (     0          0          1      )
                  (     0          1          0      )

 cart.    s(17) = (  0.0000000  0.0000000 -1.0000000 )
                  (  0.0000000  1.0000000  0.0000000 )
                  ( -1.0000000  0.0000000  0.0000000 )


      isym = 18     inv. 180 deg rotation - cart. axis [-1,0,1]  

 cryst.   s(18) = (    -1          0          0      )
                  (    -1          1          0      )
                  (    -1          0          1      )

 cart.    s(18) = (  0.0000000  0.0000000  1.0000000 )
                  (  0.0000000  1.0000000  0.0000000 )
                  (  1.0000000  0.0000000  0.0000000 )


      isym = 19     inv.  90 deg rotation - cart. axis [0,1,0]   

 cryst.   s(19) = (     0         -1          1      )
                  (     1         -1          0      )
                  (     0         -1          0      )

 cart.    s(19) = (  0.0000000  0.0000000 -1.0000000 )
                  (  0.0000000 -1.0000000  0.0000000 )
                  (  1.0000000  0.0000000  0.0000000 )


      isym = 20     inv.  90 deg rotation - cart. axis [0,-1,0]  

 cryst.   s(20) = (     0          1         -1      )
                  (     0          0         -1      )
                  (     1          0         -1      )

 cart.    s(20) = (  0.0000000  0.0000000  1.0000000 )
                  (  0.0000000 -1.0000000  0.0000000 )
                  ( -1.0000000  0.0000000  0.0000000 )


      isym = 21     inv. 180 deg rotation - cart. axis [0,1,1]   

 cryst.   s(21) = (     1         -1          0      )
                  (     0         -1          0      )
                  (     0         -1          1      )

 cart.    s(21) = (  1.0000000  0.0000000  0.0000000 )
                  (  0.0000000  0.0000000 -1.0000000 )
                  (  0.0000000 -1.0000000  0.0000000 )


      isym = 22     inv. 180 deg rotation - cart. axis [0,1,-1]  

 cryst.   s(22) = (     0          0          1      )
                  (     0          1          0      )
                  (     1          0          0      )

 cart.    s(22) = (  1.0000000  0.0000000  0.0000000 )
                  (  0.0000000  0.0000000  1.0000000 )
                  (  0.0000000  1.0000000  0.0000000 )


      isym = 23     inv.  90 deg rotation - cart. axis [-1,0,0]  

 cryst.   s(23) = (     0          0         -1      )
                  (     1          0         -1      )
                  (     0          1         -1      )

 cart.    s(23) = ( -1.0000000  0.0000000  0.0000000 )
                  (  0.0000000  0.0000000 -1.0000000 )
                  (  0.0000000  1.0000000  0.0000000 )


      isym = 24     inv.  90 deg rotation - cart. axis [1,0,0]   

 cryst.   s(24) = (    -1          1          0      )
                  (    -1          0          1      )
                  (    -1          0          0      )

 cart.    s(24) = ( -1.0000000  0.0000000  0.0000000 )
                  (  0.0000000  0.0000000  1.0000000 )
                  (  0.0000000 -1.0000000  0.0000000 )


     point group T_d (-43m) 
     there are  5 classes
     the character table:

       E     8C3   3C2   6S4   6s_d 
A_1    1.00  1.00  1.00  1.00  1.00
A_2    1.00  1.00  1.00 -1.00 -1.00
E      2.00 -1.00  2.00  0.00  0.00
T_1    3.00  0.00 -1.00  1.00 -1.00
T_2    3.00  0.00 -1.00 -1.00  1.00

     the symmetry operations in each class and the name of the first element:

     E        1
          identity                                               
     8C3      5    7    8    6   12    9   10   11
          120 deg rotation - cart. axis [-1,-1,-1]               
     3C2      2    3    4
          180 deg rotation - cart. axis [0,0,1]                  
     6S4     15   16   20   19   23   24
          inv.  90 deg rotation - cart. axis [0,0,-1]            
     6s_d    13   14   17   18   21   22
          inv. 180 deg rotation - cart. axis [1,1,0]             

   Cartesian axes

     site n.     atom                  positions (alat units)
         1           C   tau(   1) = (   0.0000000   0.0000000  -0.0000000  )
         2           Si  tau(   2) = (  -0.2510072   0.2510072   0.2510072  )

   Crystallographic axes

     site n.     atom                  positions (cryst. coord.)
         1           C   tau(   1) = ( -0.0000000 -0.0000000  0.0000000  )
         2           Si  tau(   2) = (  0.2500000  0.2500000  0.2500000  )

     number of k points=    16
                       cart. coord. in units 2pi/alat
        k(    1) = (   0.0000000   0.0000000   0.0000000), wk =   0.0092593
        k(    2) = (  -0.1659979   0.1659979  -0.1659979), wk =   0.0740741
        k(    3) = (  -0.3319957   0.3319957  -0.3319957), wk =   0.0740741
        k(    4) = (   0.4979936  -0.4979936   0.4979936), wk =   0.0370370
        k(    5) = (   0.0000000   0.3319957   0.0000000), wk =   0.0555556
        k(    6) = (  -0.1659979   0.4979936  -0.1659979), wk =   0.2222222
        k(    7) = (   0.6639914  -0.3319957   0.6639914), wk =   0.2222222
        k(    8) = (   0.4979936  -0.1659979   0.4979936), wk =   0.2222222
        k(    9) = (   0.3319957   0.0000000   0.3319957), wk =   0.1111111
        k(   10) = (   0.0000000   0.6639914   0.0000000), wk =   0.0555556
        k(   11) = (   0.8299893  -0.1659979   0.8299893), wk =   0.2222222
        k(   12) = (   0.6639914   0.0000000   0.6639914), wk =   0.1111111
        k(   13) = (   0.0000000  -0.9959872   0.0000000), wk =   0.0277778
        k(   14) = (   0.6639914  -0.3319957   0.9959872), wk =   0.2222222
        k(   15) = (   0.4979936  -0.1659979   0.8299893), wk =   0.2222222
        k(   16) = (  -0.3319957  -0.9959872   0.0000000), wk =   0.1111111

                       cryst. coord.
        k(    1) = (   0.0000000   0.0000000   0.0000000), wk =   0.0092593
        k(    2) = (   0.0000000   0.0000000   0.1666667), wk =   0.0740741
        k(    3) = (   0.0000000   0.0000000   0.3333333), wk =   0.0740741
        k(    4) = (   0.0000000   0.0000000  -0.5000000), wk =   0.0370370
        k(    5) = (  -0.0000000   0.1666667   0.1666667), wk =   0.0555556
        k(    6) = (   0.0000000   0.1666667   0.3333333), wk =   0.2222222
        k(    7) = (   0.0000000   0.1666667  -0.5000000), wk =   0.2222222
        k(    8) = (   0.0000000   0.1666667  -0.3333333), wk =   0.2222222
        k(    9) = (   0.0000000   0.1666667  -0.1666667), wk =   0.1111111
        k(   10) = (  -0.0000000   0.3333333   0.3333333), wk =   0.0555556
        k(   11) = (   0.0000000   0.3333333  -0.5000000), wk =   0.2222222
        k(   12) = (   0.0000000   0.3333333  -0.3333333), wk =   0.1111111
        k(   13) = (   0.0000000  -0.5000000  -0.5000000), wk =   0.0277778
        k(   14) = (   0.1666667   0.3333333  -0.5000000), wk =   0.2222222
        k(   15) = (   0.1666667   0.3333333  -0.3333333), wk =   0.2222222
        k(   16) = (   0.1666667  -0.5000000  -0.3333333), wk =   0.1111111

     Dense  grid:    13635 G-vectors     FFT dimensions: (  36,  36,  36)

     Smooth grid:     4909 G-vectors     FFT dimensions: (  24,  24,  24)

     Dynamical RAM for                 wfc:       0.04 MB

     Dynamical RAM for     wfc (w. buffer):       0.63 MB

     Dynamical RAM for           str. fact:       0.42 MB

     Dynamical RAM for           local pot:       0.21 MB

     Dynamical RAM for          nlocal pot:       0.15 MB

     Dynamical RAM for                qrad:       2.15 MB

     Dynamical RAM for          rho,v,vnew:       1.69 MB

     Dynamical RAM for               rhoin:       0.56 MB

     Dynamical RAM for            rho*nmix:       3.33 MB

     Dynamical RAM for           G-vectors:       0.82 MB

     Dynamical RAM for          h,s,v(r/c):       0.01 MB

     Dynamical RAM for          <psi|beta>:       0.00 MB

     Dynamical RAM for                 psi:       0.15 MB

     Dynamical RAM for                hpsi:       0.15 MB

     Dynamical RAM for                spsi:       0.15 MB

     Dynamical RAM for      wfcinit/wfcrot:       0.15 MB

     Dynamical RAM for           addusdens:       9.15 MB

     Dynamical RAM for          addusforce:       9.88 MB

     Dynamical RAM for         addusstress:      10.40 MB

     Estimated static dynamical RAM per process >      12.35 MB

     Estimated max dynamical RAM per process >      22.76 MB

     Check: negative core charge=   -0.000004

     Initial potential from superposition of free atoms

     starting charge    7.99940, renormalised to    8.00000
     Starting wfcs are    8 randomized atomic wfcs

     total cpu time spent up to now is       20.2 secs

     Self-consistent Calculation

     iteration #  1     ecut=    40.00 Ry     beta= 0.70
     Davidson diagonalization with overlap
     ethr =  1.00E-06,  avg # of iterations =  6.0

     total cpu time spent up to now is       20.5 secs

     total energy              =     -22.52372620 Ry
     Harris-Foulkes estimate   =     -22.80949726 Ry
     estimated scf accuracy    <       0.43272055 Ry

     iteration #  2     ecut=    40.00 Ry     beta= 0.70
     Davidson diagonalization with overlap
     ethr =  5.41E-03,  avg # of iterations =  2.0

     total cpu time spent up to now is       20.7 secs

     total energy              =     -22.64386750 Ry
     Harris-Foulkes estimate   =     -22.73493149 Ry
     estimated scf accuracy    <       0.17442454 Ry

     iteration #  3     ecut=    40.00 Ry     beta= 0.70
     Davidson diagonalization with overlap
     ethr =  2.18E-03,  avg # of iterations =  2.0

     total cpu time spent up to now is       20.8 secs

     total energy              =     -22.67621026 Ry
     Harris-Foulkes estimate   =     -22.67637083 Ry
     estimated scf accuracy    <       0.00117348 Ry

     iteration #  4     ecut=    40.00 Ry     beta= 0.70
     Davidson diagonalization with overlap
     ethr =  1.47E-05,  avg # of iterations =  3.8

     total cpu time spent up to now is       21.0 secs

     total energy              =     -22.67714699 Ry
     Harris-Foulkes estimate   =     -22.67723946 Ry
     estimated scf accuracy    <       0.00047403 Ry

     iteration #  5     ecut=    40.00 Ry     beta= 0.70
     Davidson diagonalization with overlap
     ethr =  5.93E-06,  avg # of iterations =  1.0

     total cpu time spent up to now is       21.2 secs

     total energy              =     -22.67703298 Ry
     Harris-Foulkes estimate   =     -22.67715513 Ry
     estimated scf accuracy    <       0.00023979 Ry

     iteration #  6     ecut=    40.00 Ry     beta= 0.70
     Davidson diagonalization with overlap
     ethr =  3.00E-06,  avg # of iterations =  2.0

     total cpu time spent up to now is       21.4 secs

     total energy              =     -22.67708655 Ry
     Harris-Foulkes estimate   =     -22.67708765 Ry
     estimated scf accuracy    <       0.00000219 Ry

     iteration #  7     ecut=    40.00 Ry     beta= 0.70
     Davidson diagonalization with overlap
     ethr =  2.73E-08,  avg # of iterations =  2.6

     total cpu time spent up to now is       21.5 secs

     total energy              =     -22.67708749 Ry
     Harris-Foulkes estimate   =     -22.67708749 Ry
     estimated scf accuracy    <       0.00000002 Ry

     iteration #  8     ecut=    40.00 Ry     beta= 0.70
     Davidson diagonalization with overlap
     ethr =  2.47E-10,  avg # of iterations =  2.9

     total cpu time spent up to now is       21.7 secs

     total energy              =     -22.67708749 Ry
     Harris-Foulkes estimate   =     -22.67708750 Ry
     estimated scf accuracy    <       0.00000003 Ry

     iteration #  9     ecut=    40.00 Ry     beta= 0.70
     Davidson diagonalization with overlap
     ethr =  2.47E-10,  avg # of iterations =  2.1

     total cpu time spent up to now is       21.9 secs

     total energy              =     -22.67708749 Ry
     Harris-Foulkes estimate   =     -22.67708749 Ry
     estimated scf accuracy    <          5.5E-10 Ry

     iteration # 10     ecut=    40.00 Ry     beta= 0.70
     Davidson diagonalization with overlap
     ethr =  6.94E-12,  avg # of iterations =  3.0

     total cpu time spent up to now is       22.1 secs

     total energy              =     -22.67708749 Ry
     Harris-Foulkes estimate   =     -22.67708749 Ry
     estimated scf accuracy    <          9.8E-11 Ry

     iteration # 11     ecut=    40.00 Ry     beta= 0.70
     Davidson diagonalization with overlap
     ethr =  1.23E-12,  avg # of iterations =  2.0

     total cpu time spent up to now is       22.3 secs

     End of self-consistent calculation

          k = 0.0000 0.0000 0.0000 (   609 PWs)   bands (ev):

    -5.9910   9.3183   9.3183   9.3183

     occupation numbers 
     1.0000   1.0000   1.0000   1.0000

          k =-0.1660 0.1660-0.1660 (   585 PWs)   bands (ev):

    -5.4569   6.9556   8.9889   8.9889

     occupation numbers 
     1.0000   1.0000   1.0000   1.0000

          k =-0.3320 0.3320-0.3320 (   601 PWs)   bands (ev):

    -3.9463   3.1780   8.4750   8.4750

     occupation numbers 
     1.0000   1.0000   1.0000   1.0000

          k = 0.4980-0.4980 0.4980 (   610 PWs)   bands (ev):

    -2.4661   0.8423   8.2664   8.2664

     occupation numbers 
     1.0000   1.0000   1.0000   1.0000

          k = 0.0000 0.3320 0.0000 (   592 PWs)   bands (ev):

    -5.2785   7.5191   8.2171   8.2171

     occupation numbers 
     1.0000   1.0000   1.0000   1.0000

          k =-0.1660 0.4980-0.1660 (   606 PWs)   bands (ev):

    -4.0832   4.5612   7.5237   7.5855

     occupation numbers 
     1.0000   1.0000   1.0000   1.0000

          k = 0.6640-0.3320 0.6640 (   606 PWs)   bands (ev):

    -2.3229   1.5967   6.5546   7.5743

     occupation numbers 
     1.0000   1.0000   1.0000   1.0000

          k = 0.4980-0.1660 0.4980 (   608 PWs)   bands (ev):

    -2.8883   2.4292   6.1327   8.1689

     occupation numbers 
     1.0000   1.0000   1.0000   1.0000

          k = 0.3320 0.0000 0.3320 (   596 PWs)   bands (ev):

    -4.5905   5.4248   6.8990   8.9384

     occupation numbers 
     1.0000   1.0000   1.0000   1.0000

          k = 0.0000 0.6640 0.0000 (   612 PWs)   bands (ev):

    -3.2437   4.2704   6.7259   6.7259

     occupation numbers 
     1.0000   1.0000   1.0000   1.0000

          k = 0.8300-0.1660 0.8300 (   603 PWs)   bands (ev):

    -1.7066   2.4927   5.0109   6.5570

     occupation numbers 
     1.0000   1.0000   1.0000   1.0000

          k = 0.6640 0.0000 0.6640 (   606 PWs)   bands (ev):

    -1.4098   2.3046   3.7373   7.1562

     occupation numbers 
     1.0000   1.0000   1.0000   1.0000

          k = 0.0000-0.9960 0.0000 (   620 PWs)   bands (ev):

    -1.0259   1.5556   6.1505   6.1505

     occupation numbers 
     1.0000   1.0000   1.0000   1.0000

          k = 0.6640-0.3320 0.9960 (   598 PWs)   bands (ev):

    -2.6762   3.3847   5.2466   6.9154

     occupation numbers 
     1.0000   1.0000   1.0000   1.0000

          k = 0.4980-0.1660 0.8300 (   608 PWs)   bands (ev):

    -1.3933   1.9816   4.6362   6.2231

     occupation numbers 
     1.0000   1.0000   1.0000   1.0000

          k =-0.3320-0.9960 0.0000 (   608 PWs)   bands (ev):

    -0.8603   2.0528   4.8514   4.9733

     occupation numbers 
     1.0000   1.0000   1.0000   1.0000

     highest occupied level (ev):     9.3183

!    total energy              =     -22.67708749 Ry
     Harris-Foulkes estimate   =     -22.67708749 Ry
     estimated scf accuracy    <          4.5E-12 Ry

     The total energy is the sum of the following terms:

     one-electron contribution =       5.54734255 Ry
     hartree contribution      =       2.34930421 Ry
     xc contribution           =      -9.72651410 Ry
     ewald contribution        =     -20.84722014 Ry

     convergence has been achieved in  11 iterations

     Forces acting on atoms (cartesian axes, Ry/au):

     atom    1 type  1   force =     0.00000000    0.00000000    0.00000000
     atom    2 type  2   force =    -0.00000000    0.00000000   -0.00000000
     The non-local contrib.  to forces
     atom    1 type  1   force =    -0.00000000   -0.00000000   -0.00000000
     atom    2 type  2   force =     0.00000000   -0.00000000    0.00000000
     The ionic contribution  to forces
     atom    1 type  1   force =    -0.00000000    0.00000000    0.00000000
     atom    2 type  2   force =     0.00000000   -0.00000000   -0.00000000
     The local contribution  to forces
     atom    1 type  1   force =    -0.00000000   -0.00000000   -0.00000000
     atom    2 type  2   force =    -0.00000000    0.00000000    0.00000000
     The core correction contribution to forces
     atom    1 type  1   force =    -0.00000000    0.00000000    0.00000000
     atom    2 type  2   force =    -0.00000000    0.00000000    0.00000000
     The Hubbard contrib.    to forces
     atom    1 type  1   force =     0.00000000    0.00000000    0.00000000
     atom    2 type  2   force =     0.00000000    0.00000000    0.00000000
     The SCF correction term to forces
     atom    1 type  1   force =     0.00000000   -0.00000000   -0.00000000
     atom    2 type  2   force =    -0.00000000    0.00000000    0.00000000

     Total force =     0.000000     Total SCF correction =     0.000000


     Computing stress (Cartesian axis) and pressure

          total   stress  (Ry/bohr**3)                   (kbar)     P=        0.31
   0.00000210  -0.00000000  -0.00000000            0.31       -0.00       -0.00
  -0.00000000   0.00000210   0.00000000           -0.00        0.31        0.00
  -0.00000000   0.00000000   0.00000210           -0.00        0.00        0.31

     kinetic stress (kbar)   7407.31     -0.00     -0.00
                               -0.00   7407.31     -0.00
                               -0.00     -0.00   7407.31

     local   stress (kbar)  -1891.25     -0.00     -0.00
                               -0.00  -1891.25      0.00
                               -0.00      0.00  -1891.25

     nonloc. stress (kbar)   3170.00     -0.00     -0.00
                               -0.00   3170.00      0.00
                               -0.00      0.00   3170.00

     hartree stress (kbar)    815.09     -0.00     -0.00
                               -0.00    815.09      0.00
                               -0.00      0.00    815.09

     exc-cor stress (kbar)   1446.07      0.00      0.00
                                0.00   1446.07     -0.00
                                0.00     -0.00   1446.07

     corecor stress (kbar)  -3713.95     -0.00      0.00
                               -0.00  -3713.95     -0.00
                                0.00     -0.00  -3713.95

     ewald   stress (kbar)  -7232.97      0.00      0.00
                                0.00  -7232.97     -0.00
                                0.00     -0.00  -7232.97

     hubbard stress (kbar)      0.00      0.00      0.00
                                0.00      0.00      0.00
                                0.00      0.00      0.00

     london  stress (kbar)      0.00      0.00      0.00
                                0.00      0.00      0.00
                                0.00      0.00      0.00

     DFT-D3  stress (kbar)      0.00      0.00      0.00
                                0.00      0.00      0.00
                                0.00      0.00      0.00

     XDM     stress (kbar)      0.00      0.00      0.00
                                0.00      0.00      0.00
                                0.00      0.00      0.00

     dft-nl  stress (kbar)      0.00      0.00      0.00
                                0.00      0.00      0.00
                                0.00      0.00      0.00

     TS-vdW  stress (kbar)      0.00      0.00      0.00
                                0.00      0.00      0.00
                                0.00      0.00      0.00



     Writing output data file ./tmp/SiC.save/

     init_run     :      3.86s CPU      3.93s WALL (       2 calls)
     electrons    :      7.00s CPU      7.51s WALL (       4 calls)
     update_pot   :      2.77s CPU      2.80s WALL (       2 calls)
     forces       :      3.00s CPU      3.05s WALL (       4 calls)
     stress       :      6.44s CPU      6.55s WALL (       4 calls)

     Called by init_run:
     wfcinit      :      0.12s CPU      0.12s WALL (       2 calls)
     wfcinit:atom :      0.00s CPU      0.00s WALL (      32 calls)
     wfcinit:wfcr :      0.11s CPU      0.11s WALL (      32 calls)
     potinit      :      0.75s CPU      0.76s WALL (       2 calls)
     hinit0       :      2.94s CPU      2.98s WALL (       2 calls)

     Called by electrons:
     c_bands      :      4.10s CPU      4.31s WALL (      41 calls)
     sum_band     :      1.27s CPU      1.41s WALL (      41 calls)
     v_of_rho     :      1.09s CPU      1.12s WALL (      45 calls)
     v_h          :      0.04s CPU      0.04s WALL (      45 calls)
     v_xc         :      1.23s CPU      1.28s WALL (      53 calls)
     newd         :      0.52s CPU      0.67s WALL (      45 calls)
     mix_rho      :      0.09s CPU      0.09s WALL (      41 calls)

     Called by c_bands:
     init_us_2    :      0.24s CPU      0.24s WALL (    1472 calls)
     cegterg      :      3.83s CPU      4.02s WALL (     656 calls)

     Called by sum_band:
     sum_band:bec :      0.00s CPU      0.00s WALL (     656 calls)
     addusdens    :      0.54s CPU      0.68s WALL (      41 calls)

     Called by *egterg:
     h_psi        :      3.23s CPU      3.37s WALL (    2240 calls)
     s_psi        :      0.18s CPU      0.19s WALL (    2240 calls)
     g_psi        :      0.03s CPU      0.03s WALL (    1552 calls)
     cdiaghg      :      0.09s CPU      0.10s WALL (    2176 calls)
     cegterg:over :      0.15s CPU      0.16s WALL (    1552 calls)
     cegterg:upda :      0.11s CPU      0.11s WALL (    1552 calls)
     cegterg:last :      0.05s CPU      0.05s WALL (     690 calls)

     Called by h_psi:
     h_psi:calbec :      0.18s CPU      0.19s WALL (    2240 calls)
     vloc_psi     :      2.84s CPU      2.96s WALL (    2240 calls)
     add_vuspsi   :      0.18s CPU      0.19s WALL (    2240 calls)

     General routines
     calbec       :      0.26s CPU      0.27s WALL (    3216 calls)
     fft          :      0.49s CPU      0.50s WALL (     679 calls)
     ffts         :      0.02s CPU      0.02s WALL (      86 calls)
     fftw         :      2.84s CPU      2.94s WALL (   19692 calls)
     interpolate  :      0.05s CPU      0.05s WALL (      45 calls)


     PWSCF        :     23.92s CPU     24.74s WALL


   This run was terminated on:  19:38:17  23May2020            

=------------------------------------------------------------------------------=
   JOB DONE.
=------------------------------------------------------------------------------=
